version 2
run PastryDHT-7-20211203-23:25:42-6496
attr Lifetime 800s
attr configname PastryDHT
attr datetime 20211203-23:25:42
attr experiment PastryDHT
attr inifile configs.ini
attr iterationvars $Lifetime=800s
attr iterationvars2 "$Lifetime=800s, $repetition=0"
attr measurement $Lifetime=800s
attr network oversim.underlay.simpleunderlay.SimpleUnderlayNetwork
attr processid 6496
attr repetition 0
attr replication #0
attr resultdir results
attr runnumber 7
attr seedset 7

vector 43  SimpleUnderlayNetwork.globalObserver.globalStatistics  "GlobalNodeList: Number of nodes"  ETV
vector 44  SimpleUnderlayNetwork.globalObserver.globalStatistics  "GlobalDhtTestMap: Number of stored DHT entries"  ETV
vector 45  SimpleUnderlayNetwork.globalObserver.globalStatistics  "LifetimeChurn: Session Time"  ETV
vector 46  SimpleUnderlayNetwork.globalObserver.globalStatistics  "LifetimeChurn: Time between creates"  ETV
vector 47  SimpleUnderlayNetwork.globalObserver.globalStatistics  "LifetimeChurn: Time between deletes"  ETV
43	2693842	150	495
43	3339899	200	489
43	3965340	250	501
43	4701030	300	509
43	5305946	350	499
43	5997821	400	490
43	6709455	450	485
43	7355026	500	478
43	8084813	550	492
43	8702549	600	489
43	9438945	650	482
43	10098165	700	482
43	10847277	750	486
43	11600313	800	484
43	12266216	850	483
43	13049111	900	492
43	13726020	950	495
43	14495013	1000	489
43	15305719	1050	490
43	15972789	1100	482
44	2693843	150	746
44	2862604	160	819
44	2973603	170	893
44	3072243	180	950
44	3214088	190	1023
44	3339900	200	1125
44	3469815	210	1202
44	3589850	220	1291
44	3714089	230	1357
44	3808322	240	1417
44	3965341	250	1500
44	4085190	260	1586
44	4233085	270	1666
44	4383962	280	1750
44	4542020	290	1830
44	4701031	300	1906
44	4870165	310	1977
44	4992238	320	2060
44	5102982	330	2147
44	5193192	340	2228
44	5305947	350	2301
44	5386097	360	2367
44	5541689	370	2366
44	5685010	380	2354
44	5840861	390	2330
44	5997822	400	2325
44	6147822	410	2335
44	6305282	420	2343
44	6451183	430	2366
44	6621252	440	2348
44	6709456	450	2339
44	6833025	460	2342
44	6964170	470	2345
44	7060641	480	2358
44	7190731	490	2355
44	7355027	500	2339
44	7546753	510	2337
44	7659331	520	2327
44	7795757	530	2336
44	7931295	540	2342
44	8084814	550	2340
44	8202067	560	2331
44	8289431	570	2331
44	8400070	580	2331
44	8567554	590	2322
44	8702550	600	2322
44	8802427	610	2322
44	8945198	620	2323
44	9125695	630	2306
44	9257617	640	2304
44	9438946	650	2305
44	9535183	660	2304
44	9680285	670	2298
44	9831444	680	2293
44	9929974	690	2308
44	10098166	700	2308
44	10230579	710	2294
44	10378777	720	2296
44	10512287	730	2283
44	10672614	740	2287
44	10847278	750	2286
44	11026889	760	2289
44	11122311	770	2271
44	11256412	780	2281
44	11427261	790	2285
44	11600314	800	2286
44	11738140	810	2289
44	11881313	820	2286
44	12000378	830	2272
44	12131483	840	2285
44	12266217	850	2278
44	12462734	860	2293
44	12639519	870	2288
44	12799826	880	2273
44	12953060	890	2272
44	13049112	900	2274
44	13236680	910	2287
44	13360359	920	2282
44	13522531	930	2301
44	13642237	940	2296
44	13726021	950	2283
44	13943424	960	2282
44	14096416	970	2291
44	14243156	980	2300
44	14382112	990	2300
44	14495014	1000	2282
44	14668201	1010	2303
44	14860728	1020	2300
44	15018275	1030	2299
44	15153990	1040	2295
44	15305720	1050	2293
44	15440966	1060	2300
44	15576782	1070	2307
44	15702860	1080	2308
44	15834929	1090	2292
44	15972790	1100	2299
44	16085925	1110	2309
44	16201296	1120	2300
44	16358005	1130	2311
44	16527525	1140	2275
45	2709147	151.135260789	716.084721837
45	2720741	151.847610553	677.96886828
45	2725187	152.265552206	2927.10439539
45	2757420	154.138052128	23.873659528
45	2804030	156.505009246	615.741530409
45	2806581	156.682518225	481.659353459
45	2865873	160.278312472	1881.396563594
45	2869938	160.543595574	1064.886393759
45	2873049	160.91236071	134.268740991
45	2905497	163.161441746	1099.009107489
45	2966456	169.060316743	792.56906956
45	3010488	173.405304266	358.741803987
45	3026572	175.68549595	96.08025718
45	3032947	176.668394966	1605.74900734
45	3051200	178.130295575	46.073558037
45	3052318	178.291561695	61.66699156
45	3058148	178.53335304	2186.843290141
45	3070401	179.813005881	468.449013357
45	3081048	180.987224486	2915.997247888
45	3102502	182.662436666	1137.243688882
45	3121993	183.721598858	887.895486717
45	3174835	186.846726399	1781.123645359
45	3190819	188.083305426	783.119665749
45	3210276	189.52840454	1878.423079469
45	3224025	191.225691268	578.04194318
45	3225943	191.509888615	2673.787715818
45	3251884	194.236531616	181.116519486
45	3256323	194.776898014	185.063023159
45	3256361	194.782252964	528.202239986
45	3333008	199.473377168	152.168469637
45	3348131	200.693618388	1458.944817993
45	3368517	201.775233528	2205.810390206
45	3372123	202.03176884	1226.925017265
45	3372850	202.159492873	691.721326749
45	3380495	202.979507309	209.406557175
45	3448811	207.557167272	1510.237686304
45	3454860	208.688840825	1360.736013362
45	3455589	208.83979001	270.422686294
45	3485460	211.272505544	358.005894174
45	3503482	213.551472194	1145.317100911
45	3518798	215.165356912	1227.705096201
45	3521208	215.348864633	644.947867978
45	3529420	215.938678339	149.388943752
45	3539470	216.987794674	219.418961114
45	3559954	217.808364187	664.386307174
45	3569413	218.954921377	61.092973297
45	3572511	219.097994276	1000.212190375
45	3589823	219.991843587	249.383013074
45	3596020	220.72372362	334.622666348
45	3608421	221.805313356	415.844489255
45	3612018	222.378602444	527.34116068
45	3664475	225.326235278	1146.414499174
45	3671388	226.166789886	155.132046428
45	3680152	227.143051124	1754.647243098
45	3710168	229.66501657	370.623893165
45	3744511	232.538532686	1826.907547543
45	3749716	232.965350427	14.783342839
45	3751161	233.20809978	517.262806905
45	3771824	234.825522367	2547.385404302
45	3798851	238.777215367	3130.754016469
45	3801914	239.156728056	1673.175468561
45	3805690	239.72800745	1363.739240701
45	3816639	240.595775631	371.257807379
45	3857938	242.95386383	191.283556677
45	3890553	245.086079941	395.024577085
45	3925881	248.002425253	381.876059401
45	3927486	248.105811588	681.024849269
45	3931000	248.199553365	1446.015811381
45	3949063	249.276523715	247.284607518
45	3978477	250.814388625	194.463387431
45	3995660	252.483995747	2404.483083598
45	4060850	257.050609376	140.98936564
45	4082116	259.539385922	1338.424236969
45	4087473	260.206225575	919.553392473
45	4090416	260.440079234	55.959696273
45	4160211	265.054985985	1731.235932248
45	4168841	265.861777611	4.526346216
45	4174451	266.627810735	1149.856554808
45	4182531	267.095258993	662.805123974
45	4185863	267.275634012	148.327026653
45	4247071	271.169789028	921.815773124
45	4248475	271.238535972	2990.920472078
45	4249225	271.287673777	1168.474428134
45	4260402	272.610475684	2089.606114041
45	4287140	274.08137442	698.277123862
45	4289852	274.350384597	145.628466126
45	4302533	275.373942024	1982.259339489
45	4382709	279.845129186	284.002020088
45	4408314	282.495022454	1114.048418454
45	4414167	283.016871211	202.509886524
45	4415914	283.119045235	439.336999231
45	4416612	283.19385643	78.811484849
45	4419603	283.40513283	1292.104136262
45	4450156	284.919231909	93.162320006
45	4516861	287.757619922	1245.358711991
45	4525632	288.684203631	126.737300868
45	4540886	289.892922314	338.822058564
45	4566397	291.142580395	159.332617867
45	4567989	291.270072934	921.998414837
45	4568261	291.314649395	1969.436238628
45	4580389	291.949041825	721.485788835
45	4634043	294.665833806	65.199973421
45	4649863	295.855573086	1187.551994675
45	4653172	296.218162258	142.792759774
45	4681206	298.274851638	423.502811598
45	4695839	299.761383439	584.130403051
45	4721847	300.830456224	367.78962296
45	4730813	301.76329106	300.33994272
45	4756496	303.308139471	297.424558794
45	4765317	304.178622651	2487.720347203
45	4765515	304.194124793	1341.996039057
45	4766118	304.248520821	77.721486754
45	4776361	305.073742021	481.187819267
45	4776478	305.095760379	300.724674583
45	4799483	306.128217193	165.966064894
45	4856179	308.72166496	216.854986212
45	4876865	310.641442244	140.790580255
45	4916113	313.547644295	236.726735784
45	4973606	317.992072948	814.508882601
45	4993141	320.212728262	2660.113434519
45	5021727	323.200275341	34.013250056
45	5022282	323.285865547	524.56595089
45	5074660	327.771217007	2485.842076084
45	5112923	330.979377853	1316.281409218
45	5134562	333.244148908	305.888913593
45	5188155	339.676663416	503.531771614
45	5211642	341.935359098	109.04994889
45	5224345	343.628506617	657.453896528
45	5225408	343.763650702	2309.101065685
45	5285698	347.641987705	389.339483631
45	5316173	351.530556731	247.226018166
45	5408417	362.141772848	316.308220712
45	5409197	362.179685146	1041.583671397
45	5409870	362.237004262	268.808391957
45	5424182	363.410510199	204.877413358
45	5436452	364.359769794	1617.831465781
45	5448752	365.282101106	155.983778848
45	5480377	366.937683336	740.756252683
45	5492099	367.557338687	854.902915927
45	5502547	368.422053493	382.14942776
45	5604810	374.87557473	996.743917922
45	5636853	377.291675569	3589.060028624
45	5637115	377.316922867	344.121254836
45	5658010	378.221602974	507.963704807
45	5661653	378.619755315	316.218463317
45	5671852	379.206710775	831.05505569
45	5736030	382.569335496	144.961137184
45	5750669	383.517902095	1264.033618806
45	5775034	385.317856164	807.439228422
45	5841164	390.016760275	967.152897338
45	5841256	390.020941387	536.352684952
45	5845072	390.276369364	1571.514848923
45	5916627	394.705858134	1254.723775092
45	5923666	395.200577415	25.113022441
45	5937264	396.299410115	787.671591347
45	5989439	399.474097685	256.387493048
45	5996429	399.870399609	215.840932914
45	6067438	403.552448308	425.907748805
45	6085063	404.814678404	1010.587084229
45	6109436	406.604656004	194.645609136
45	6113241	406.894446706	7.566626132
45	6128752	408.215097594	166.647958486
45	6131362	408.463873379	1453.951850474
45	6187987	412.17411459	452.380802351
45	6245209	415.317481214	596.187698709
45	6249879	415.702701784	284.349357088
45	6255294	416.277439892	301.454964362
45	6317572	420.740124123	148.755328238
45	6342569	422.102279126	58.413845575
45	6355623	422.927781127	33.204290831
45	6360366	423.244152828	285.422075993
45	6414104	427.196334846	3914.450126119
45	6431714	428.857924152	621.484353243
45	6491692	432.564654409	279.287955425
45	6493405	432.749746657	587.069560097
45	6506908	433.643928545	321.384768747
45	6514023	434.116252071	1703.498166958
45	6549463	435.621656008	279.224604838
45	6578337	437.151110755	977.621572174
45	6642454	442.406203882	795.716008178
45	6674044	446.867240913	851.146515011
45	6697376	449.105793853	1853.175480554
45	6705583	449.721308171	121.598664349
45	6707059	449.891861882	284.638748395
45	6771802	454.906403051	313.754263454
45	6775258	455.183179502	193.680462211
45	6778872	455.574017583	1195.041483974
45	6799285	457.192822173	253.518699749
45	6810207	457.925930213	2770.496773749
45	6824885	459.112511104	1917.802056697
45	6887711	463.540116295	748.727040596
45	6960861	469.637717241	664.100534298
45	7015757	476.410798568	1044.39437544
45	7016780	476.447947978	101.788917859
45	7049153	478.758837822	239.950317084
45	7063522	480.187656509	528.834825339
45	7093908	482.820849386	1134.220670791
45	7118024	484.904925981	1216.499198857
45	7135276	486.694504071	247.287987726
45	7152059	488.1856135	131.996766888
45	7156603	488.407085895	70.701547808
45	7171048	488.999788626	849.716660282
45	7220212	491.365791568	10.01709167
45	7306749	496.480312625	514.320275906
45	7314611	497.076284002	637.146857781
45	7326856	498.195003098	955.660495157
45	7338980	498.822902899	461.959088385
45	7357555	500.206606736	118.705445868
45	7392886	502.261559124	2315.69816933
45	7430253	504.789919975	947.853157119
45	7430329	504.794118966	400.509763849
45	7434854	505.08979175	163.421902345
45	7437469	505.300985082	770.256738038
45	7443608	506.1222982	752.02965139
45	7444393	506.247439857	697.247131319
45	7446899	506.453098029	491.251327162
45	7452867	506.59815578	727.0241968
45	7503557	508.48254367	1311.191714255
45	7645775	518.605347864	249.759714315
45	7653373	519.256154713	437.938573583
45	7676756	521.444393705	144.629936857
45	7705333	523.799438878	938.166907779
45	7717090	524.648617091	48.013905074
45	7719317	524.79261382	448.333447807
45	7725692	525.540674384	238.675885917
45	7732298	526.070945193	172.542612052
45	7767601	527.954915707	4437.817741732
45	7819665	532.194787858	663.316513364
45	7823773	532.415494542	69.761637645
45	7827773	532.814670647	19.019120475
45	7848099	534.125924309	505.093257829
45	7866811	535.527976721	1247.187528953
45	7894392	537.289657536	1336.179542839
45	7896825	537.550902243	453.011801269
45	7898101	537.689447552	36.296485271
45	7950280	541.638193128	753.835857914
45	7951573	541.720640206	560.11058792
45	7964834	543.056378836	70.30726139
45	7966973	543.330589522	843.564935142
45	7972881	543.728444314	681.508173285
45	7990742	545.242381371	771.987066717
45	8004588	545.576488055	314.48362495
45	8041266	547.608702075	398.066364983
45	8095909	550.634827388	273.662195282
45	8205449	560.530805122	283.718093015
45	8212695	561.746951014	32.57805825
45	8254388	566.698547334	397.984249007
45	8263752	567.864303212	439.69087055
45	8280252	569.127799144	811.748406899
45	8280380	569.152907091	2416.812936712
45	8288965	569.969880157	103.004798848
45	8297129	570.655061851	1582.382864047
45	8300065	571.141656127	56.329661099
45	8309391	572.141128281	791.353303009
45	8318938	573.501915258	192.625315193
45	8347121	575.837977869	648.125427949
45	8374662	578.40453236	357.500885678
45	8384950	578.966042137	130.839367037
45	8434371	582.082024035	1201.840403243
45	8434897	582.153636992	1283.14237228
45	8443155	582.543510503	28.723541636
45	8446707	582.789082816	653.631887996
45	8476383	584.880328399	312.951934573
45	8582456	591.0582224	1604.924177393
45	8586017	591.479518815	1318.335538596
45	8595334	592.202592213	1633.994851513
45	8718969	602.073889426	1151.6139089
45	8727427	603.19016147	315.761735516
45	8727979	603.222070548	953.285007109
45	8747726	604.770783935	207.088469662
45	8760975	606.095729676	526.213699433
45	8782975	608.086040306	185.797110716
45	8807839	610.871138518	439.062998742
45	8807975	610.896958269	1559.342069561
45	8879868	615.237297384	1616.856921734
45	8883801	615.623478743	38.198503191
45	8896582	616.493794761	1047.77415012
45	8897791	616.667596484	274.104820799
45	8932953	618.958408851	349.998347726
45	8935131	619.174317323	911.826800922
45	8969043	620.92421065	950.96519751
45	8988647	622.17747373	334.999482121
45	8990065	622.305990964	1201.49193074
45	8999333	622.736869133	1227.057073743
45	9024670	624.42669078	389.548443474
45	9032152	624.990575949	1280.617904716
45	9039665	625.604726079	432.170201173
45	9056210	626.715395634	3204.146980236
45	9077378	627.35688946	122.006993036
45	9103612	628.80008177	805.184511507
45	9114203	629.370731982	818.52085802
45	9177181	634.035680755	147.923784097
45	9201645	636.173916393	211.546567131
45	9215679	637.256979943	776.346547521
45	9219263	637.650321272	1113.018163751
45	9229877	638.458864405	1593.309530969
45	9238369	639.29869642	444.724037425
45	9288909	641.427251843	124.374477476
45	9293471	641.505540158	1275.447761027
45	9323634	642.883285465	476.563489279
45	9376855	645.487968683	707.315239138
45	9467704	653.258161714	786.713285542
45	9484441	655.08707997	103.420060743
45	9521946	658.383307861	112.431585544
45	9551199	661.045428623	36.601311777
45	9569107	662.560121363	177.007321107
45	9571289	662.711581448	221.1492034
45	9595182	665.607481111	590.703431978
45	9618574	666.938700085	275.483595911
45	9633000	668.246771855	1060.787198454
45	9637313	668.611423754	294.550218361
45	9675990	669.584183899	1535.714337499
45	9704297	671.230327192	85.822157754
45	9717769	672.348564426	4828.087810984
45	9726292	672.94047424	132.598436627
45	9739989	673.638042142	331.375057472
45	9742556	673.765991662	1391.569242782
45	9767199	675.366372854	654.31643189
45	9818398	678.687054206	202.963277903
45	9845080	681.850195066	2293.682550001
45	9851172	682.146706779	1479.250930653
45	9906374	687.536312456	219.833294016
45	9924513	689.316411356	2023.042750854
45	9927942	689.767436925	400.952738935
45	9934279	690.400608847	113.068979238
45	10002346	693.602686464	669.403990882
45	10007665	693.941518186	897.652407012
45	10064935	697.391683494	1589.503714402
45	10077300	698.225148579	674.099575562
45	10105530	700.242426279	134.21353255
45	10115875	701.376285979	1934.162151225
45	10119496	701.685959922	391.72430815
45	10127465	702.095534137	718.357381538
45	10201100	707.42902829	388.370888155
45	10206513	708.14830167	4973.69820334
45	10210072	708.586202522	377.295539571
45	10222744	709.619715046	2803.593438108
45	10229802	709.949370585	194.06485929
45	10311274	714.273363334	43.645520714
45	10312139	714.392180434	1048.93124563
45	10343796	716.825995264	128.343186441
45	10376841	719.787276981	190.189036562
45	10401034	722.023715858	19.044427313
45	10405069	722.251099238	1319.32353477
45	10449102	725.991162855	732.973968527
45	10450845	726.131277965	594.791590352
45	10464554	727.339414989	147.927559892
45	10465069	727.43491795	1761.736975318
45	10474189	727.937081471	285.123064678
45	10484392	728.652009172	404.181517839
45	10504795	729.580490974	46.857152681
45	10530160	731.108155787	53.659707783
45	10545489	731.579308976	139.67550666
45	10561739	732.771982751	3300.457032689
45	10599197	734.749517835	325.907921271
45	10619799	735.95689861	370.692877623
45	10646805	737.918252908	1726.136278585
45	10655694	738.639165228	486.359056834
45	10665841	739.566263313	442.640143142
45	10722692	743.04372874	513.716138585
45	10730193	743.304233713	1330.625857381
45	10740881	744.133586622	1644.13247943
45	10741735	744.296039703	572.176559596
45	10805246	747.238411689	912.58615433
45	10805574	747.253031865	65.275483475
45	10812898	747.787298479	1234.611044729
45	10838945	749.501567239	704.301101618
45	10851196	750.29043709	28.677844896
45	10855300	750.697178482	356.712127595
45	10875861	751.884484188	1757.943984907
45	10947233	754.672968345	258.029748791
45	10983126	757.241700365	84.882394666
45	10984874	757.428938813	19.852858159
45	11084727	765.628097273	3210.418046626
45	11109405	768.276721355	920.849957272
45	11123250	770.228331636	458.583969633
45	11130605	771.179964444	1775.278243267
45	11154741	773.825717107	1309.413101781
45	11155293	773.860634257	2132.128689945
45	11173148	775.169587043	111.105933484
45	11193807	776.371580216	500.039594454
45	11199447	776.747014394	20.747199998
45	11213950	777.298274059	72.118888482
45	11270112	781.113699835	682.149026086
45	11274674	781.643041171	297.227252625
45	11275703	781.688930848	757.466551911
45	11282713	782.545228239	35.192758748
45	11354720	785.861676535	282.268452916
45	11362239	786.424520667	3235.887671354
45	11366340	786.683883603	176.460993951
45	11370477	786.998611109	124.749637541
45	11414331	789.509479663	842.370066069
45	11453910	791.345749648	187.764845933
45	11472865	793.275685146	199.659105933
45	11486585	794.029320744	819.293359657
45	11496822	794.527327819	46.047847602
45	11506232	795.383770705	844.810911808
45	11507327	795.450077845	1551.085015876
45	11586484	799.023685702	244.609232153
45	11617614	801.289273025	168.170834367
45	11635308	802.497074125	345.367044857
45	11680410	805.368429743	2995.514381392
45	11690283	806.540559048	481.588100418
45	11699715	807.123107051	51.285099844
45	11758023	811.63140784	535.365260207
45	11760826	811.817803295	1583.62708749
45	11774655	813.198233258	1497.295019889
45	11802621	814.734425452	971.152439832
45	11806366	815.085355769	24.429281579
45	11858433	818.437942393	598.548384327
45	11870713	819.23034655	377.384370981
45	11881972	820.051145874	1104.684793318
45	11920053	822.879291123	205.288448547
45	11942352	825.506286181	497.807354172
45	11947698	826.11041129	432.801696089
45	11949363	826.310994758	405.82571896
45	11981109	828.343145857	307.776474888
45	11985182	828.538533775	32.93195832
45	11989409	828.961248386	308.87808556
45	12026914	831.137328367	744.110670803
45	12048268	832.810226768	317.157092356
45	12055762	833.492229803	139.40471229
45	12057802	833.623666574	529.712504695
45	12062649	834.297905136	250.491153361
45	12130524	839.811919912	4244.983867382
45	12148384	841.530220983	59.114013011
45	12156657	842.699683299	44.953552344
45	12196574	845.149008331	1018.393626656
45	12200690	845.46374791	424.946709876
45	12234393	847.991105943	677.434490349
45	12235343	848.099031891	696.565420392
45	12259652	849.698426611	1597.987732001
45	12267058	850.068686549	1043.037259942
45	12277502	851.12200358	333.927625451
45	12291672	852.236334726	58.685933465
45	12292160	852.25800932	2228.061991712
45	12299681	852.738181755	181.929724964
45	12324011	853.500252779	386.414093019
45	12343525	854.638612673	483.570670169
45	12351326	855.098903215	115.028393614
45	12363043	855.747952265	405.066555246
45	12435133	858.709239914	362.776091542
45	12459983	859.859317266	52.589073916
45	12492365	861.694580446	76.584989858
45	12498891	862.147667932	438.021237549
45	12499700	862.217963321	806.088563611
45	12519376	863.379612008	968.594950649
45	12535517	864.287605699	866.660078067
45	12606460	867.831237574	152.353226681
45	12614328	868.29229333	720.711964917
45	12621750	868.845417634	12.549639645
45	12624501	869.05857844	860.107867969
45	12667267	871.563090521	413.642469225
45	12718188	875.434360891	922.775044626
45	12719964	875.613712066	1038.938513879
45	12729435	876.633544853	1980.712223771
45	12729677	876.658636269	31.506906098
45	12737387	877.023920777	807.21721734
45	12746583	877.643724762	1765.402868677
45	12777341	878.974991571	1787.76926007
45	12792923	879.781224164	729.981263421
45	12806048	880.326269539	314.540612826
45	12874532	883.553592357	6.8043588
45	12943788	888.837724589	346.994781311
45	12945631	889.04383639	1164.916047906
45	12963467	891.437582986	892.424043899
45	13016250	896.892977917	1420.377048996
45	13029415	898.657550749	673.364663293
45	13029824	898.685299403	500.730141478
45	13066369	900.892895422	1206.2726109
45	13075835	902.191901866	635.020428632
45	13079980	902.495116042	19.824859091
45	13082461	902.777611484	1540.781518868
45	13083024	902.882367363	302.325276085
45	13083873	903.017471705	516.118553393
45	13089812	903.668821025	36.600945987
45	13095901	904.107066322	2070.312370786
45	13118279	904.738775812	391.453889007
45	13133515	905.331381428	5050.538660969
45	13228628	909.089656233	326.296133967
45	13239075	910.138921627	2080.493934994
45	13240393	910.279724322	863.877472765
45	13253491	911.270000825	164.762380789
45	13302524	915.673976409	108.093693252
45	13307810	916.293095635	48.375401715
45	13314816	916.987546708	258.901672429
45	13319513	917.402492373	496.327796547
45	13383947	921.932054677	22.427482559
45	13385814	922.102161764	259.654547373
45	13424235	924.792040208	574.260588981
45	13424347	924.825692434	144.160877773
45	13439774	925.809538425	110.265238826
45	13465420	927.181132047	2988.47020822
45	13511722	929.55353679	840.241805149
45	13549344	931.665429491	2229.004468763
45	13578576	934.279232854	194.517810553
45	13592129	935.746381245	815.688912848
45	13638338	939.629224353	107.718995819
45	13670808	943.653501361	277.383602367
45	13680909	945.035635866	430.509144442
45	13703083	947.546100313	458.196397961
45	13715274	948.944144885	175.695285757
45	13717731	949.143801097	88.215596484
45	13723094	949.729004203	371.11211723
45	13727132	950.112206281	446.110711095
45	13742000	951.042563178	729.47357558
45	13746311	951.298749884	621.228053937
45	13778444	952.361167487	262.872710004
45	13785395	952.879127733	648.658934304
45	13825337	954.41853923	696.350242258
45	13838085	955.149716476	207.731081428
45	13888641	957.063886491	61.040122649
45	13901526	957.725784913	817.213442962
45	13937477	959.613987217	3.342533041
45	13960252	961.039583097	2614.46775768
45	13961010	961.084778436	504.639601595
45	14086645	968.865425814	537.770840616
45	14098943	970.264322816	181.099435198
45	14120784	972.254041776	303.383146649
45	14132670	973.337345341	287.164218088
45	14135164	973.720153906	1051.245297362
45	14172722	975.70060969	96.713659565
45	14208602	977.709774146	798.369721117
45	14241789	979.922921643	558.302941532
45	14278139	983.18488224	8.55048305
45	14323290	986.154457655	455.055897226
45	14345489	987.286186012	1069.394549155
45	14412205	992.835063354	3340.954308054
45	14455054	997.239335821	903.983777707
45	14455931	997.283046724	196.875350053
45	14458269	997.418708894	1922.751527888
45	14475271	998.819308642	549.430096718
45	14475803	998.893560213	1099.129127121
45	14560771	1003.799502117	665.92643349
45	14569686	1004.408309471	779.718870135
45	14569775	1004.4154957	317.541303148
45	14580241	1005.322585552	339.912776979
45	14614135	1007.168970155	190.244441745
45	14620553	1007.696446765	1183.560080049
45	14635179	1008.658508977	901.109544204
45	14649089	1009.125834303	1263.745119082
45	14657700	1009.311969732	685.209118403
45	14720718	1012.210666686	255.009212061
45	14734075	1013.136443759	256.824484556
45	14740448	1013.481300943	1185.384698649
45	14742651	1013.620276133	587.986808516
45	14756745	1014.037185016	395.758080211
45	14813479	1017.087482314	668.580663902
45	14823812	1017.696487944	766.837136818
45	14875657	1021.331241419	97.372228249
45	14891717	1022.751733831	353.033043014
45	14909145	1023.89998365	685.060053885
45	14936281	1026.022718227	811.796493241
45	14950391	1026.712271159	1633.089966729
45	14953206	1026.814792548	143.987424807
45	14976280	1028.172444581	769.205068639
45	15069065	1034.658455428	121.711585094
45	15074907	1035.302583097	617.67232127
45	15084328	1036.28928608	99.486890054
45	15088132	1036.589532916	960.114198103
45	15088800	1036.665760169	45.149336776
45	15105509	1037.711509942	463.841678218
45	15105628	1037.717927054	2721.338129136
45	15149381	1039.806832175	381.579890652
45	15173284	1041.329053628	1009.718315785
45	15201228	1042.380438005	1112.322808526
45	15223458	1044.016459016	881.103207001
45	15237220	1045.277366439	801.94240912
45	15272686	1048.072460189	247.177673764
45	15278600	1048.610584834	273.985291955
45	15287386	1049.033932596	609.283786536
45	15350744	1053.008162463	1235.318259612
45	15384782	1055.554971659	393.050048856
45	15390691	1056.127804695	14.262950244
45	15457255	1061.091575141	241.850947737
45	15463495	1061.598281945	10.464672842
45	15465863	1061.803438037	1187.283121238
45	15466353	1061.845802267	23.097230498
45	15473473	1062.302918251	276.765916536
45	15514246	1064.714035776	968.099002
45	15572170	1069.530461166	8.312631135
45	15619304	1073.077053966	151.4196592
45	15628539	1073.837658378	1071.303107357
45	15686752	1078.663754355	488.686125241
45	15721768	1082.032552672	690.623984341
45	15722830	1082.144474318	410.184043964
45	15722983	1082.162229089	1050.05872498
45	15774719	1085.66004929	3371.565508707
45	15783995	1085.989524483	1601.409731071
45	15797261	1087.542228518	4804.578141223
45	15813221	1089.038589718	458.670734935
45	15828226	1089.730823152	1664.919773853
45	15918762	1095.965146781	61.60971552
45	15929685	1097.122676676	1006.847484596
45	15937509	1097.910536134	54.950403812
45	16016519	1103.383903358	253.194247024
45	16056340	1107.78878985	2302.404672585
45	16059820	1108.151931055	317.891722633
45	16122000	1113.308759473	1027.646418106
45	16130882	1114.328203093	81.100318463
45	16172879	1118.07425722	123.027751601
45	16184070	1118.626956191	293.661337267
45	16202430	1120.168578255	3395.269337411
45	16216264	1121.162998882	116.443662983
45	16217845	1121.415083002	149.40302424
45	16268205	1123.900359887	248.544755431
45	16278976	1124.893118869	109.509697115
45	16281796	1125.077183281	88.860735264
45	16287576	1125.490281908	264.172990363
45	16314368	1127.134084322	815.780627004
45	16319621	1127.619387543	234.081769511
45	16347738	1129.29942193	1839.524787612
45	16368309	1131.125275432	300.995766177
45	16371831	1131.566140336	740.183549527
45	16385663	1132.685281274	1445.387272939
45	16429986	1134.872075242	96.040771394
45	16453403	1135.941385668	45.830951695
45	16456185	1136.116676494	252.260717993
45	16457182	1136.185167336	1010.213166532
45	16529623	1140.261368263	24.85523935
45	16534877	1140.661283817	295.264522675
45	16539888	1141.024279021	2986.246642151
45	16566434	1142.463050236	100.803292033
45	16574876	1142.898187963	1887.40653591
45	16578941	1143.284381529	46.616929847
45	16587480	1144.09426654	42.115126355
45	16596399	1144.595187336	1839.259842269
45	16606205	1144.815107407	860.427569944
45	16613313	1144.97809434	973.630683193
45	16636238	1146.356390218	4.837286312
45	16670310	1147.934244726	2650.945172772
45	16673001	1148.119428052	446.366270123
45	16694950	1149.169639167	357.767000154
46	2709147	151.135260789	5.291683323
46	2720741	151.847610553	0.712349764
46	2725187	152.265552206	0.417941653
46	2757420	154.138052128	1.872499922
46	2804030	156.505009246	2.366957118
46	2806581	156.682518225	0.177508979
46	2865873	160.278312472	3.595794247
46	2869938	160.543595574	0.265283102
46	2873049	160.91236071	0.368765136
46	2905497	163.161441746	2.249081036
46	2966456	169.060316743	5.898874997
46	3010488	173.405304266	4.344987523
46	3026572	175.68549595	2.280191684
46	3032947	176.668394966	0.982899016
46	3051200	178.130295575	1.461900609
46	3052318	178.291561695	0.16126612
46	3058148	178.53335304	0.241791345
46	3070401	179.813005881	1.279652841
46	3081048	180.987224486	1.174218605
46	3102502	182.662436666	1.67521218
46	3121993	183.721598858	1.059162192
46	3174835	186.846726399	3.125127541
46	3190819	188.083305426	1.236579027
46	3210276	189.52840454	1.445099114
46	3224025	191.225691268	1.697286728
46	3225943	191.509888615	0.284197347
46	3251884	194.236531616	2.726643001
46	3256323	194.776898014	0.540366398
46	3256361	194.782252964	0.00535495
46	3333008	199.473377168	4.691124204
46	3348131	200.693618388	1.22024122
46	3368517	201.775233528	1.08161514
46	3372123	202.03176884	0.256535312
46	3372850	202.159492873	0.127724033
46	3380495	202.979507309	0.820014436
46	3448811	207.557167272	4.577659963
46	3454860	208.688840825	1.131673553
46	3455589	208.83979001	0.150949185
46	3485460	211.272505544	2.432715534
46	3503482	213.551472194	2.27896665