version 2
run PastryDHT-4-20211203-23:16:50-6496
attr Lifetime 500s
attr configname PastryDHT
attr datetime 20211203-23:16:50
attr experiment PastryDHT
attr inifile configs.ini
attr iterationvars $Lifetime=500s
attr iterationvars2 "$Lifetime=500s, $repetition=0"
attr measurement $Lifetime=500s
attr network oversim.underlay.simpleunderlay.SimpleUnderlayNetwork
attr processid 6496
attr repetition 0
attr replication #0
attr resultdir results
attr runnumber 4
attr seedset 4

vector 25  SimpleUnderlayNetwork.globalObserver.globalStatistics  "GlobalNodeList: Number of nodes"  ETV
vector 26  SimpleUnderlayNetwork.globalObserver.globalStatistics  "GlobalDhtTestMap: Number of stored DHT entries"  ETV
vector 27  SimpleUnderlayNetwork.globalObserver.globalStatistics  "LifetimeChurn: Time between deletes"  ETV
vector 28  SimpleUnderlayNetwork.globalObserver.globalStatistics  "LifetimeChurn: Session Time"  ETV
vector 29  SimpleUnderlayNetwork.globalObserver.globalStatistics  "LifetimeChurn: Time between creates"  ETV
25	3207413	150	520
25	4151821	200	521
25	5121810	250	519
25	5937169	300	505
25	6996938	350	513
25	7917845	400	513
25	8824137	450	494
25	9698692	500	499
25	10894990	550	509
25	11873932	600	501
25	12995733	650	504
25	14068210	700	510
25	15186682	750	514
25	16235720	800	516
25	17418698	850	518
25	18525399	900	519
25	19569287	950	527
25	20507221	1000	514
25	21557812	1050	515
25	22546398	1100	504
26	3207414	150	736
26	3386989	160	826
26	3572175	170	907
26	3770017	180	963
26	3974137	190	1042
26	4151822	200	1125
26	4379062	210	1219
26	4568774	220	1301
26	4783933	230	1380
26	4990944	240	1443
26	5121811	250	1519
26	5247930	260	1592
26	5394951	270	1694
26	5588039	280	1773
26	5762083	290	1852
26	5937170	300	1929
26	6153260	310	1991
26	6323215	320	2055
26	6552835	330	2148
26	6779564	340	2228
26	6996939	350	2300
26	7207121	360	2361
26	7388137	370	2372
26	7561694	380	2339
26	7735538	390	2350
26	7917846	400	2349
26	8127107	410	2349
26	8302425	420	2377
26	8496489	430	2377
26	8650995	440	2356
26	8824138	450	2354
26	9007782	460	2347
26	9181017	470	2347
26	9362590	480	2362
26	9534047	490	2358
26	9698693	500	2344
26	9944214	510	2337
26	10164440	520	2333
26	10392617	530	2318
26	10597992	540	2330
26	10894991	550	2325
26	11089838	560	2332
26	11285857	570	2302
26	11448813	580	2301
26	11664404	590	2305
26	11873933	600	2295
26	12052966	610	2310
26	12264980	620	2319
26	12505061	630	2308
26	12766882	640	2305
26	12995734	650	2322
26	13176472	660	2288
26	13352544	670	2284
26	13631096	680	2316
26	13833207	690	2303
26	14068211	700	2286
26	14303532	710	2289
26	14536937	720	2281
26	14760094	730	2288
26	14959645	740	2307
26	15186683	750	2314
26	15401171	760	2303
26	15645371	770	2297
26	15847265	780	2297
26	16063372	790	2298
26	16235721	800	2312
26	16464184	810	2318
26	16715564	820	2307
26	16896642	830	2330
26	17121163	840	2331
26	17418699	850	2333
26	17651869	860	2325
26	17911350	870	2356
26	18108298	880	2347
26	18302923	890	2343
26	18525400	900	2353
26	18679432	910	2354
26	18848615	920	2355
26	19091993	930	2362
26	19362265	940	2367
26	19569288	950	2363
26	19796008	960	2382
26	19962027	970	2378
26	20124716	980	2360
26	20315790	990	2362
26	20507222	1000	2383
26	20687917	1010	2384
26	20883926	1020	2388
26	21107988	1030	2388
26	21285464	1040	2368
26	21557813	1050	2359
26	21793888	1060	2370
26	22005232	1070	2379
26	22181736	1080	2380
26	22373591	1090	2386
26	22546399	1100	2376
26	22779036	1110	2369
26	22946331	1120	2377
26	23184394	1130	2373
26	23468164	1140	2346
27	3208844	150.029954853	0.041775571
27	3215646	150.211632952	0.181678099
27	3240659	151.438280152	1.2266472
27	3248913	151.810624029	0.372343877
27	3273161	153.547725909	1.73710188
27	3294621	155.203943642	1.656217733
27	3307773	156.345855446	1.141911804
27	3316323	157.101088637	0.755233191
27	3335126	157.901586828	0.800498191
27	3395129	160.202356426	2.300769598
27	3398778	160.347059161	0.144702735
27	3426961	161.047477846	0.700418685
27	3431012	161.170582933	0.123105087
27	3458503	162.481190818	1.310607885
27	3501819	164.422165154	1.940974336
27	3508914	164.834307108	0.412141954
27	3524827	166.206522233	1.372215125
27	3545973	168.111924762	1.905402529
27	3549465	168.531681969	0.419757207
27	3573688	170.127393132	1.595711163
27	3613455	171.69689745	1.569504318
27	3627365	172.7698102	1.07291275
27	3646983	173.700149234	0.930339034
27	3659778	174.493440702	0.793291468
27	3678207	175.350872112	0.85743141
27	3719778	177.680189744	2.329317632
27	3728129	178.312617792	0.632428048
27	3768959	179.916162833	1.603545041
27	3781359	180.7683569	0.852194067
27	3797590	181.684682184	0.916325284
27	3801291	181.940279437	0.255597253
27	3814253	182.415408413	0.475128976
27	3866878	185.061038418	2.645630005
27	3896087	186.288056416	1.227017998
27	3920451	187.664970588	1.376914172
27	3922958	187.821113059	0.156142471
27	3981192	190.385851729	2.56473867
27	4059418	193.953608763	3.567757034
27	4059695	193.969201546	0.015592783
27	4069275	194.644379322	0.675177776
27	4076499	194.882091745	0.237712423
27	4089843	195.646507731	0.764415986
27	4136480	198.679512148	3.033004417
27	4139358	198.874424304	0.194912156
27	4144986	199.397213335	0.522789031
27	4162042	200.276062391	0.878849056
27	4190610	201.148245943	0.872183552
27	4195418	201.396692772	0.248446829
27	4218539	202.133588331	0.736895559
27	4248111	203.053088468	0.919500137
27	4279853	204.879422369	1.826333901
27	4325930	207.264403872	2.384981503
27	4326394	207.298804592	0.03440072
27	4328969	207.441726424	0.142921832
27	4330739	207.544542279	0.102815855
27	4376225	209.750104509	2.20556223
27	4377479	209.837364845	0.087260336
27	4380712	210.177451404	0.340086559
27	4421048	211.555930951	1.378479547
27	4455074	212.875016741	1.31908579
27	4469823	213.558408155	0.683391414
27	4485211	214.568206593	1.009798438
27	4540763	218.338607518	3.770400925
27	4541343	218.365853535	0.027246017
27	4548694	218.725345692	0.359492157
27	4566298	219.785649176	1.060303484
27	4592986	221.774354849	1.988705673
27	4598775	222.461789339	0.68743449
27	4625685	223.944512007	1.482722668
27	4636226	224.449191538	0.504679531
27	4661194	225.838940307	1.389748769
27	4680079	226.249599522	0.410659215
27	4699413	226.616276734	0.366677212
27	4765800	228.810355537	2.194078803
27	4810671	230.653024732	1.842669195
27	4813291	230.74972461	0.096699878
27	4823053	231.125985959	0.376261349
27	4831695	231.831239824	0.705253865
27	4864791	232.606685682	0.775445858
27	4872419	232.870751052	0.26406537
27	4889493	233.829475596	0.958724544
27	4892528	234.008145281	0.178669685
27	4901114	234.440951888	0.432806607
27	4941909	236.758092385	2.317140497
27	4951704	237.374692789	0.616600404
27	4958682	237.648809602	0.274116813
27	4968941	238.541043897	0.892234295
27	4969383	238.597169039	0.056125142
27	4985786	239.532214397	0.935045358
27	4989102	239.785110382	0.252895985
27	5010187	241.142940128	1.357829746
27	5036409	243.021952816	1.879012688
27	5038274	243.205829944	0.183877128
27	5038526	243.242244214	0.03641427
27	5039523	243.374607853	0.132363639
27	5042036	243.654183771	0.279575918
27	5053251	244.904735154	1.250551383
27	5070083	246.945467947	2.040732793
27	5076530	247.24731307	0.301845123
27	5080078	247.682798031	0.435484961
27	5118481	249.7867941	2.103996069
27	5137240	250.999880812	1.213086712
27	5167386	253.332673103	2.332792291
27	5182432	254.780851127	1.448178024
27	5186384	255.303449248	0.522598121
27	5187256	255.468391629	0.164942381
27	5187513	255.514103406	0.045711777
27	5197831	256.245550965	0.731447559
27	5206643	257.217311218	0.971760253
27	5233270	259.074493164	1.857181946
27	5234573	259.246750737	0.172257573
27	5261193	260.96329183	1.716541093
27	5264029	261.232401452	0.269109622
27	5267580	261.665112959	0.432711507
27	5268118	261.718560624	0.053447665
27	5268905	261.782984472	0.064423848
27	5271289	261.98734783	0.204363358
27	5288045	262.530545993	0.543198163
27	5295750	263.011224707	0.480678714
27	5331178	265.090419323	2.079194616
27	5333286	265.295315676	0.204896353
27	5350162	266.793990723	1.498675047
27	5358439	267.396382255	0.602391532
27	5375598	268.80851453	1.412132275
27	5397414	270.288689655	1.480175125
27	5400284	270.598923617	0.310233962
27	5407368	271.13592399	0.537000373
27	5425135	272.257563288	1.121639298
27	5431325	272.804268928	0.54670564
27	5505235	276.146245565	3.341976637
27	5511662	276.528555446	0.382309881
27	5543102	277.414780887	0.886225441
27	5586214	279.878338339	2.463557452
27	5591661	280.231206619	0.35286828
27	5600563	280.818785513	0.587578894
27	5602253	280.961494026	0.142708513
27	5606457	281.446672928	0.485178902
27	5616278	282.064069269	0.617396341
27	5647700	283.639543057	1.575473788
27	5663843	284.335000727	0.69545767
27	5670979	284.841567816	0.506567089
27	5685873	285.771382124	0.929814308
27	5713888	287.546671466	1.775289342
27	5766023	290.41674224	2.870070774
27	5770200	290.656555943	0.239813703
27	5776782	290.867472035	0.210916092
27	5787270	291.304341792	0.436869757
27	5812699	292.601666121	1.297324329
27	5838456	293.840991938	1.239325817
27	5844466	293.980240095	0.139248157
27	5859808	294.793083244	0.812843149
27	5866141	295.246064844	0.4529816
27	5899639	297.394557424	2.14849258
27	5903414	297.78391573	0.389358306
27	5927671	299.546123825	1.762208095
27	5943287	300.257329418	0.711205593
27	6024012	303.110130929	2.852801511
27	6028651	303.28948153	0.179350601
27	6062139	304.777911636	1.488430106
27	6079686	305.534814761	0.756903125
27	6088920	305.968624258	0.433809497
27	6090918	306.125842356	0.157218098
27	6184836	312.051959183	5.926116827
27	6187987	312.400395217	0.348436034
27	6272425	317.559193159	5.158797942
27	6273271	317.603814027	0.044620868
27	6298431	318.700299414	1.096485387
27	6314488	319.602128207	0.901828793
27	6330224	320.396174479	0.794046272
27	6347492	321.132698684	0.736524205
27	6357607	321.949425251	0.816726567
27	6359798	322.072542471	0.12311722
27	6363069	322.280079081	0.20753661
27	6402117	325.136938897	2.856859816
27	6458475	327.060172693	1.923233796
27	6468803	327.542669451	0.482496758
27	6546221	329.758137572	2.215468121
27	6569582	330.572201104	0.814063532
27	6577775	331.0845583	0.512357196
27	6586604	331.319527702	0.234969402
27	6613541	331.98982055	0.670292848
27	6621638	332.649397766	0.659577216
27	6648667	333.936659666	1.2872619
27	6694069	335.977016914	2.040357248
27	6695313	336.080947734	0.10393082
27	6706803	336.30867875	0.227731016
27	6766360	339.186388477	2.877709727
27	6814749	341.509204002	2.322815525
27	6856490	343.06402454	1.554820538
27	6872504	343.760444017	0.696419477
27	6872907	343.778529016	0.018084999
27	6880138	344.200514846	0.42198583
27	6899904	345.142378348	0.941863502
27	6955483	348.178758528	3.03638018
27	6957637	348.258364746	0.079606218
27	6989307	349.588854182	1.330489436
27	6994295	349.897256468	0.308402286
27	6999824	350.119324895	0.222068427
27	7013568	350.761233275	0.64190838
27	7029520	351.519931609	0.758698334
27	7088265	354.770799854	3.250868245
27	7100431	355.403486179	0.632686325
27	7132838	357.008097254	1.604611075
27	7163569	358.319848167	1.311750913
27	7175426	358.98788621	0.668038043
27	7240086	361.703414407	2.715528197
27	7272357	363.141347045	1.437932638
27	7276566	363.471309401	0.329962356
27	7276764	363.495821068	0.024511667
27	7282643	363.946388101	0.450567033
27	7318028	366.269092015	2.322703914
27	7319237	366.307617319	0.038525304
27	7320283	366.334721193	0.027103874
27	7336327	366.924650583	0.58992939
27	7354497	368.19280924	1.268158657
27	7355011	368.223025678	0.030216438
27	7386866	369.887803857	1.664778179
27	7388521	370.036530739	0.148726882
27	7403038	371.126638689	1.09010795
27	7404503	371.267083242	0.140444553
27	7409467	371.658684526	0.391601284
27	7410906	371.82306278	0.164378254
27	7453546	374.543185211	2.720122431
27	7475601	375.596912173	1.053726962
27	7547432	379.484963119	3.888050946
27	7611867	381.766768703	2.281805584
27	7634050	382.901305785	1.134537082
27	7666453	385.467848511	2.566542726
27	7668779	385.690991288	0.223142777
27	7695818	387.4469675	1.755976212
27	7703069	387.943813594	0.496846094
27	7788031	393.087500424	5.14368683
27	7793217	393.350179395	0.262678971
27	7794725	393.47895351	0.128774115
27	7802071	393.878797374	0.399843864
27	7805880	394.086922571	0.208125197
27	7876174	397.596262975	3.509340404
27	7897748	398.562157444	0.965894469
27	7911167	399.47423462	0.912077176
27	7915017	399.73086678	0.25663216
27	7916299	399.857886716	0.127019936
27	7942508	401.115785136	1.25789842
27	7947967	401.208370621	0.092585485
27	7949433	401.235025636	0.026655015
27	8019543	403.930419568	2.695393932
27	8023159	404.003741904	0.073322336
27	8036618	404.53459828	0.530856376
27	8036753	404.543449623	0.008851343
27	8049990	405.121290988	0.577841365
27	8054156	405.496018986	0.374727998
27	8070888	406.569587983	1.073568997
27	8076440	407.226542805	0.656954822
27	8078179	407.446210579	0.219667774
27	8106488	409.306342581	1.860132002
27	8115020	409.468233585	0.161891004
27	8129419	410.108606654	0.640373069
27	8129537	410.116654307	0.008047653
27	8160991	411.236340908	1.119686601
27	8187662	412.428181783	1.191840875
27	8218253	414.14831159	1.720129807
27	8228111	414.991524432	0.843212842
27	8263745	417.300523445	2.308999013
27	8285755	418.983927007	1.683403562
27	8293628	419.37316544	0.389238433
27	8317425	420.887638229	1.514472789
27	8351509	422.590848484	1.703210255
27	8378054	423.360878341	0.770029857
27	8404583	424.759087768	1.398209427
27	8407385	424.965130745	0.206042977
27	8409220	425.096613866	0.131483121
27	8421782	425.685872844	0.589258978
27	8427001	425.999199607	0.313326763
27	8439335	426.91134161	0.912142003
27	8440859	427.066155437	0.154813827
27	8473971	428.758993164	1.692837727
27	8497021	430.054214831	1.295221667
27	8506167	430.386349933	0.332135102
27	8511147	430.677964691	0.291614758
27	8516019	431.137569707	0.459605016
27	8522748	431.594498472	0.456928765
27	8525552	431.766389881	0.171891409
27	8544618	432.880621621	1.11423174
27	8545664	432.999453103	0.118831482
27	8560494	433.96035621	0.960903107
27	8566996	434.453121385	0.492765175
27	8615589	437.636534768	3.183413383
27	8645475	439.587528619	1.950993851
27	8645772	439.617563855	0.030035236
27	8660794	440.356198082	0.738634227
27	8666806	440.740253111	0.384055029
27	8743661	444.612146924	3.871893813
27	8764059	446.168372299	1.556225375
27	8789083	447.641135101	1.472762802
27	8847088	451.64884201	4.007706909
27	8906666	454.656831879	3.007989869
27	8935161	456.343401823	1.686569944
27	8937819	456.660698881	0.317297058
27	8939031	456.799596779	0.138897898
27	8993395	459.083292339	2.28369556
27	8993849	459.100615128	0.017322789
27	9003506	459.688739268	0.58812414
27	9039578	461.14567587	1.456936602
27	9079718	462.826686833	1.681010963
27	9083677	463.059620842	0.232934009
27	9094064	463.76730035	0.707679508
27	9107580	464.46973518	0.70243483
27	9119545	465.299935479	0.830200299
27	9138900	466.738879771	1.438944292
27	9174244	469.687631644	2.948751873
27	9183436	470.20344006	0.515808416
27	9186586	470.517367709	0.313927649
27	9199754	471.604826279	1.08745857
27	9200369	471.654653232	0.049826953
27	9213185	472.254731472	0.60007824
27	9224235	472.792087221	0.537355749
27	9277474	475.362260119	2.570172898
27	9283528	475.61024198	0.247981861
27	9289279	476.017685493	0.407443513
27	9291938	476.1179594	0.100273907
27	9322130	477.632407711	1.514448311
27	9352205	479.54336172	1.910954009
27	9364636	480.096444022	0.553082302
27	9369268	480.408884777	0.312440755
27	9375944	481.009193927	0.60030915
27	9383396	481.644212814	0.635018887
27	9404335	482.827396849	1.183184035
27	9412514	483.421241005	0.593844156
27	9450371	485.548033558	2.126792553
27	9453598	485.7271869	0.179153342
27	9459007	486.148731294	0.421544394
27	9495999	488.067713112	1.918981818
27	9505034	488.757556306	0.689843194
27	9513321	489.032538708	0.274982402
27	9531871	489.900196842	0.867658134
27	9537595	490.129313101	0.229116259
27	9594656	493.460861876	3.331548775
27	9599707	494.08060281	0.619740934
27	9605867	494.643158143	0.562555333
27	9638953	497.177372979	2.534214836
27	9646997	497.45650986	0.279136881
27	9648679	497.529604744	0.073094884
27	9673609	498.964295447	1.434690703
27	9699392	500.034279053	1.069983606
27	9701898	500.192751596	0.158472543
27	9703306	500.248459613	0.055708017
27	9785069	502.637884882	2.389425269
27	9789246	502.757870696	0.119985814
27	9805277	503.372132975	0.614262279
27	9853081	504.858788984	1.486656009
27	9855958	504.997932447	0.139143463
27	9884853	506.441993387	1.44406094
27	9892266	506.784620689	0.342627302
27	9937318	509.440738836	2.656118147
27	9957091	510.74728501	1.306546174
27	9977693	512.089785197	1.342500187
27	9986260	512.474686641	0.384901444
27	9990616	512.732332285	0.257645644
27	10017585	513.812870404	1.080538119
27	10063746	516.272443972	2.459573568
27	10131385	518.891521053	2.619077081
27	10131806	518.947396395	0.055875342
27	10143263	519.421559201	0.474162806
27	10184794	520.823356011	1.40179681
27	10192331	521.289302569	0.465946558
27	10221158	521.919935906	0.630633337
27	10251429	523.018426871	1.098490965
27	10257004	523.24355835	0.225131479
27	10263359	523.414340765	0.170782415
27	10273249	523.726168729	0.311827964
27	10301186	525.123518841	1.397350112
27	10305670	525.430302658	0.306783817
27	10319756	526.332976181	0.902673523
27	10354646	528.273710926	1.940734745
27	10384038	529.523906887	1.250195961
27	10481054	534.305386943	4.781480056
27	10484942	534.528104094	0.222717151
27	10506563	535.526953239	0.998849145
27	10553808	537.637771231	2.110817992
27	10571600	538.264235128	0.626463897
27	10585952	539.239268162	0.975033034
27	10593945	539.746109814	0.506841652
27	10633699	541.511586825	1.765477011
27	10693365	543.413949761	1.902362936
27	10751816	545.177143643	1.763193882
27	10751969	545.190323599	0.013179956
27	10752582	545.229168255	0.038844656
27	10826991	547.270869904	2.041701649
27	10827916	547.317592213	0.046722309
27	10844674	547.725425625	0.407833412
27	10850691	547.933699576	0.208273951
27	10893186	549.847330074	1.913630498
27	10903167	550.511364611	0.664034537
27	10909816	550.93741104	0.426046429
27	10913307	551.183721987	0.246310947
27	10914455	551.297894136	0.114172149
27	10915668	551.399593208	0.101699072
27	10927623	552.253115866	0.853522658
27	10934155	552.847853843	0.594737977
27	10935165	552.951057029	0.103203186
27	10968529	554.213747456	1.262690427
27	11006468	556.035481555	1.821734099
27	11013124	556.563083552	0.527601997
27	11018790	556.855477793	0.292394241
27	11027295	557.130723034	0.275245241
27	11036845	557.398266383	0.267543349
27	11076082	559.249047231	1.850780848
27	11082687	559.572328051	0.32328082
27	11097313	560.662870224	1.090542173
27	11105628	561.184964048	0.522093824
27	11129012	562.336089406	1.151125358
27	11163365	563.664465633	1.328376227
27	11170399	563.828795173	0.16432954
27	11196457	564.708457821	0.879662648
27	11216618	565.864259137	1.155801316
27	11232286	566.659237081	0.794977944
27	11296312	570.510013668	3.850776587
27	11316287	572.042856594	1.532842926
27	11316854	572.096445216	0.053588622
27	11325745	572.724980434	0.628535218
27	11332223	573.140873409	0.415892975
27	11350419	574.258575902	1.117702493
27	11364549	575.298185092	1.03960919
27	11378021	575.939081202	0.64089611
27	11381075	576.205416825	0.266335623
27	11438909	579.325173677	3.119756852
27	11463743	580.687753996	1.362580319
27	11483553	581.680496693	0.992742697
27	11552509	584.045362634	2.364865941
27	11561996	584.581099276	0.535736642
27	11582026	585.33396771	0.752868434
27	11589156	585.695255682	0.361287972
27	11644644	588.784059342	3.08880366
27	11674153	590.450353469	1.666294127
27	11686539	591.353630531	0.903277062
27	11691172	591.595707565	0.242077034
27	11701927	592.339803647	0.744096082
27	11722335	594.099507786	1.759704139
27	11758898	596.227638331	2.128130545
27	11759152	596.249484118	0.021845787
27	11789773	597.411485026	1.162000908
27	11823504	598.260739953	0.849254927
27	11823599	598.265115749	0.004375796
27	11826576	598.375388229	0.11027248
27	11887834	600.793678534	2.418290305
27	11890866	600.961166975	0.167488441
27	11894094	601.196344313	0.235177338
27	11898346	601.33960967	0.143265357
27	11900828	601.464522903	0.124913233
27	11923708	603.126333937	1.661811034
27	11937242	604.194475826	1.068141889
27	11954995	605.02851966	0.834043834
27	11972999	606.038897611	1.010377951
27	11984396	606.390286299	0.351388688
27	11994833	606.973362569	0.58307627
27	11996591	607.091599708	0.118237139
27	11997236	607.124226517	0.032626809
27	12011378	608.102742096	0.978515579
27	12013793	608.193413169	0.090671073
27	12014291	608.211969563	0.018556394
27	12014658	608.230732708	0.018763145
27	12034381	608.794942168	0.56420946
27	12042941	609.419282765	0.624340597
27	12046745	609.706534548	0.287251783
27	12049985	609.92251554	0.215980992
27	12066442	610.401131254	0.478615714
27	12106515	612.059624911	1.658493657
27	12128625	613.346764419	1.287139508
27	12130543	613.455479424	0.108715005
27	12133212	613.674054433	0.218575009
27	12134588	613.811632165	0.137577732
27	12158433	614.842822098	1.031189933
27	12164553	615.128070651	0.285248553
27	12221226	617.632727976	2.504657325
27	12227515	617.986279653	0.353551677
27	12293109	621.220922314	3.234642661
27	12317838	622.303397644	1.08247533
27	12326359	622.507145575	0.203747931
27	12329340	622.605989324	0.098843749
27	12380803	624.640002712	2.034013388
27	12480829	628.836468771	4.196466059
27	12558498	632.592021699	3.755552928
27	12617747	634.851438584	2.259416885
27	12635455	635.463914471	0.612475887
27	12636205	635.500591614	0.036677143
27	12654367	636.091533113	0.590941499
27	12662249	636.336315658	0.244782545
27	12692499	637.26048588	0.924170222
27	12692888	637.288210481	0.027724601
27	12840895	643.085284285	5.797073804
27	12868861	644.036729668	0.951445383
27	12890679	644.960522636	0.923792968
27	12892075	645.067744231	0.107221595
27	12919123	645.937073047	0.869328816
27	12923610	646.085705391	0.148632344
27	12965281	648.228249708	2.142544317
27	12990716	649.651222647	1.422972939
27	12991188	649.681336303	0.030113656
27	12999548	650.14992425	0.468587947
27	13004806	650.66426559	0.51434134
27	13026319	651.916207565	1.251941975
27	13055865	653.751978507	1.835770942
27	13056304	653.794446785	0.042468278
27	13093030	655.325506488	1.531059703
27	13116714	656.50462944	1.179122952
27	13119514	656.582538077	0.077908637
27	13133182	657.42906561	0.846527533
27	13156380	658.632613993	1.203548383
27	13160450	658.900245383	0.26763139
27	13170053	659.713048243	0.81280286
27	13170099	659.719317319	0.006269076
27	13173413	659.881894843	0.162577524
27	13181755	660.221998079	0.340103236
27	13193928	661.102091964	0.880093885
27	13195622	661.237486238	0.135394274
27	13212963	662.751370677	1.513884439
27	13232522	664.053535131	1.302164454
27	13237050	664.389696379	0.336161248
27	13266412	666.597138449	2.20744207
27	13272539	666.876044711	0.278906262
27	13276988	667.117769443	0.241724732
27	13277118	667.122196413	0.00442697
27	13311619	668.356191171	1.233994758
27	13372934	670.530276821	2.17408565
27	13421168	671.96768258	1.437405759
27	13431855	672.478757851	0.511075271
27	13456326	673.413320928	0.934563077
27	13549508	677.13036517	3.717044242
27	13611099	679.030910154	1.900544984
27	13611674	679.055195114	0.02428496
27	13622506	679.58474478	0.529549666
27	13671900	681.79920562	2.21446084
27	13734434	685.92872721	4.12952159
27	13835529	690.130626735	4.201899525
27	13857651	691.380970293	1.250343558
27	13865456	691.652672364	0.271702071
27	13871316	692.005831271	0.353158907
27	13977609	696.041504851	4.03567358
27	13981682	696.133385145	0.091880294
27	14032638	698.12032634	1.986941195
27	14074964	700.353078024	2.232751684
27	14076045	700.43326629	0.080188266
27	14076892	700.500336322	0.067070032
27	14093610	701.402647927	0.902311605
27	14110217	702.030575866	0.627927939
27	14115172	702.234768828	0.204192962
27	14125573	703.055065626	0.820296798
27	14154594	703.922760534	0.867694908
27	14162851	704.14647264	0.223712106
27	14174916	704.928473734	0.782001094
27	14257804	708.013874752	3.085401018
27	14258147	708.028223788	0.014349036
27	14299979	709.85577389	1.827550102
27	14330760	711.390889128	1.535115238
27	14339141	711.734406134	0.343517006
27	14351578	712.663155478	0.928749344
27	14387913	713.858087788	1.19493231
27	14395386	714.244644415	0.386556627
27	14407161	714.889963479	0.645319064
27	14447460	716.799339498	1.909376019
27	14459122	717.319027559	0.519688061
27	14515113	719.390965538	2.071937979
27	14536260	719.970214037	0.579248499
27	14538188	720.038389514	0.068175477
27	14539427	720.091835215	0.053445701
27	14564654	720.814085388	0.722250173
27	14578387	721.420898127	0.606812739
27	14581301	721.566396758	0.145498631
27	14633484	723.727277148	2.16088039
27	14639682	724.221332853	0.494055705
27	14642757	724.441291925	0.219959072
27	14654033	725.02391419	0.582622265
27	14671562	725.980988845	0.957074655
27	14699798	727.0574363	1.076447455
27	14707423	727.378105206	0.320668906
27	14727708	728.464982257	1.086877051
27	14789359	731.566621894	3.101639637
27	14800410	732.128104246	0.561482352
27	14845261	734.595627521	2.467523275
27	14871011	735.888907111	1.29327959
27	14931035	738.407060593	2.518153482
27	14938863	738.871122935	0.464062342
27	14982239	741.968361543	3.097238608
27	14988257	742.219140733	0.25077919
27	14993196	742.5177399	0.298599167
27	15086611	745.914866238	3.397126338
27	15090793	746.047971514	0.133105276
27	15105151	746.759570833	0.711599319
27	15111347	746.903985579	0.144414746
27	15155568	748.756213493	1.852227914
27	15157658	748.819636083	0.06342259
27	15182572	749.660023807	0.840387724
27	15184892	749.846246273	0.186222466
27	15208095	751.188879222	1.342632949
27	15223676	751.655727249	0.466848027
27	15227041	751.860276004	0.204548755
27	15232453	752.285812358	0.425536354
27	15239576	752.670018923	0.384206565
27	15260016	753.398022437	0.728003514
27	15269101	753.826649062	0.428626625
27	15276170	754.095104658	0.268455596
27	15278321	754.228523378	0.13341872
27	15287061	754.645585177	0.417061799
27	15294615	754.837502429	0.191917252
27	15343283	757.409012202	2.571509773
27	15343566	757.428565055	0.019552853
27	15365000	758.36069345	0.932128395
27	15368503	758.548102778	0.187409328
27	15375027	758.97803515	0.429932372
27	15379274	759.194021434	0.215986284
27	15394054	759.662609163	0.468587729
27	15442158	761.208571353	1.54596219
27	15488614	763.035682071	1.827110718
27	15506945	763.949495884	0.913813813
27	15539950	765.63169621	1.682200326
27	15556047	766.621273431	0.989577221
27	15587280	768.019156834	1.397883403
27	15608461	768.676936994	0.65778016
27	15618191	769.071981581	0.395044587
27	15623647	769.177672388	0.105690807
27	15649515	770.202988319	1.025315931
27	15710843	773.536654367	3.333666048
27	15784088	777.068745758	3.532091391
27	15804907	777.738489737	0.669743979
27	15832937	779.454726896	1.716237159
27	15844643	779.840074248	0.385347352
27	15864542	780.739816612	0.899742364
27	15924029	783.487320748	2.747504136
27	15953064	784.902706034	1.415385286
27	15964516	785.344088468	0.441382434
27	15991865	786.76916047	1.425072002
27	16036616	788.807377851	2.038217381
27	16103509	792.235673909	3.428296058
27	16127895	794.056261599	1.82058769
27	16146337	794.651539777	0.595278178
27	16161506	795.547591334	0.896051557
27	16183264	796.504753794	0.95716246
27	16230297	799.560978649	3.056224855
27	16237965	800.175901574	0.614922925
27	16279887	802.075837654	1.89993608
27	16281034	802.14267551	0.066837856
27	16283616	802.345702517	0.203027007
27	16288214	802.620473566	0.274771049
27	16297848	803.129285154	0.508811588
27	16327219	804.447674923	1.318389769
27	16330952	804.679679513	0.23200459
27	16345483	805.329460059	0.649780546
27	16373120	806.579850455	1.250390396
27	16376772	806.75649055	0.176640095
27	16397691	807.300421924	0.543931374
27	16414733	808.198381301	0.897959377
27	16415513	808.251201367	0.052820066
27	16417750	808.564887982	0.313686615
27	16457048	809.644482614	1.079594632
27	16459147	809.771443385	0.126960771
27	16463153	809.918484839	0.147041454
27	16496002	811.515222933	1.596738094
27	16496582	811.591918833	0.0766959
27	16496927	811.629397737	0.037478904
27	16511481	812.429823577	0.80042584
27	16516704	812.760148408	0.330324831
27	16526427	813.165477657	0.405329249
27	16558856	814.095517338	0.930039681
27	16582034	814.944669549	0.849152211
27	16633052	816.481021273	1.536351724
27	16655299	817.736054717	1.255033444
27	16664779	818.156411881	0.420357164
27	16715759	820.01332116	1.856909279
27	16718109	820.122231425	0.108910265
27	16769639	821.866868655	1.74463723
27	16774916	822.379449747	0.512581092
27	16801144	824.026125247	1.6466755
27	16819513	825.204083733	1.177958486
27	16854833	827.189983597	1.985899864
27	16874167	828.463384536	1.273400939
27	16887438	829.643157367	1.179772831
27	16896544	829.992094418	0.348937051
27	16899372	830.272029268	0.27993485
27	16900073	830.3324187	0.060389432
27	16911288	830.960124265	0.627705565
27	16945142	832.706999669	1.746875404
27	16963262	833.598399585	0.891399916
27	16964601	833.703858693	0.105459108
27	16966412	833.935256442	0.231397749
27	16980674	834.647484106	0.712227664
27	17024945	836.395040796	1.74755669
27	17051308	837.225364027	0.830323231
27	17084216	838.635161688	1.409797661
27	17091597	838.88771282	0.252551132
27	17100758	839.195888763	0.308175943
27	17142805	840.495060675	1.299171912
27	17143042	840.51040801	0.015347335
27	17150912	840.876120634	0.365712624
27	17160056	841.294884467	0.418763833
27	17170802	841.642646365	0.347761898
27	17178601	841.849490899	0.206844534
27	17190670	842.158608367	0.309117468
27	17236586	843.206750523	1.048142156
27	17270509	844.351063809	1.144313286
27	17299991	845.438345581	1.087281772
27	17371534	847.858404513	2.420058932
27	17385211	848.557221151	0.698816638
27	17409565	849.70835493	1.151133779
27	17411295	849.738304178	0.029949248
27	17475616	853.030970386	3.292666208
27	17511152	854.829828583	1.798858197
27	17564964	857.168661243	2.33883266
27	17567098	857.218296481	0.049635238
27	17594165	858.056267915	0.837971434
27	17613807	858.479146988	0.422879073
27	17635771	859.461381842	0.982234854
27	17635923	859.474309387	0.012927545