version 2
run PastryDHT-3-20211203-23:12:44-6496
attr Lifetime 400s
attr configname PastryDHT
attr datetime 20211203-23:12:44
attr experiment PastryDHT
attr inifile configs.ini
attr iterationvars $Lifetime=400s
attr iterationvars2 "$Lifetime=400s, $repetition=0"
attr measurement $Lifetime=400s
attr network oversim.underlay.simpleunderlay.SimpleUnderlayNetwork
attr processid 6496
attr repetition 0
attr replication #0
attr resultdir results
attr runnumber 3
attr seedset 3

vector 19  SimpleUnderlayNetwork.globalObserver.globalStatistics  "GlobalNodeList: Number of nodes"  ETV
vector 20  SimpleUnderlayNetwork.globalObserver.globalStatistics  "GlobalDhtTestMap: Number of stored DHT entries"  ETV
vector 21  SimpleUnderlayNetwork.globalObserver.globalStatistics  "LifetimeChurn: Time between deletes"  ETV
vector 22  SimpleUnderlayNetwork.globalObserver.globalStatistics  "LifetimeChurn: Session Time"  ETV
vector 23  SimpleUnderlayNetwork.globalObserver.globalStatistics  "LifetimeChurn: Time between creates"  ETV
19	3354588	150	492
19	4351946	200	493
19	5560191	250	505
19	6735055	300	494
19	7810256	350	499
19	9095818	400	496
19	10257179	450	509
19	11805672	500	515
19	13092579	550	496
19	14549829	600	507
19	15928334	650	506
19	17192240	700	498
19	18225278	750	480
19	19643059	800	499
19	20770509	850	483
19	22067453	900	489
19	23232533	950	487
19	24439522	1000	489
19	25747378	1050	512
19	27031184	1100	514
20	3354589	150	690
20	3596411	160	775
20	3768565	170	843
20	3949947	180	913
20	4163452	190	975
20	4351947	200	1059
20	4601612	210	1139
20	4773912	220	1212
20	5010881	230	1286
20	5294470	240	1347
20	5560192	250	1427
20	5763285	260	1511
20	6019335	270	1590
20	6254035	280	1656
20	6484363	290	1729
20	6735056	300	1797
20	6949015	310	1875
20	7196631	320	1945
20	7418698	330	2021
20	7612845	340	2099
20	7810257	350	2179
20	8050405	360	2231
20	8346225	370	2234
20	8572693	380	2213
20	8849089	390	2226
20	9095819	400	2200
20	9291725	410	2204
20	9508796	420	2227
20	9694607	430	2244
20	9960220	440	2223
20	10257180	450	2239
20	10544777	460	2213
20	10836145	470	2220
20	11067149	480	2224
20	11420470	490	2242
20	11805673	500	2230
20	12114542	510	2236
20	12337817	520	2226
20	12610528	530	2234
20	12854834	540	2243
20	13092580	550	2242
20	13385358	560	2234
20	13710617	570	2230
20	13978218	580	2250
20	14206872	590	2241
20	14549830	600	2232
20	14858257	610	2236
20	15130105	620	2249
20	15360737	630	2254
20	15647834	640	2254
20	15928335	650	2252
20	16231293	660	2257
20	16456502	670	2251
20	16712959	680	2247
20	16960193	690	2241
20	17192241	700	2270
20	17378135	710	2274
20	17583148	720	2259
20	17815923	730	2254
20	17991290	740	2257
20	18225279	750	2256
20	18539524	760	2273
20	18825520	770	2269
20	19136349	780	2264
20	19401894	790	2248
20	19643060	800	2239
20	19849405	810	2240
20	20027664	820	2263
20	20255097	830	2250
20	20501733	840	2254
20	20770510	850	2242
20	21003167	860	2233
20	21278876	870	2235
20	21500023	880	2221
20	21719946	890	2230
20	22067454	900	2254
20	22292894	910	2239
20	22515563	920	2217
20	22753600	930	2210
20	22975874	940	2213
20	23232534	950	2206
20	23508573	960	2205
20	23727993	970	2214
20	23994846	980	2207
20	24204550	990	2198
20	24439523	1000	2178
20	24690248	1010	2191
20	24934014	1020	2202
20	25198895	1030	2195
20	25468418	1040	2201
20	25747379	1050	2181
20	26060723	1060	2187
20	26323080	1070	2191
20	26558838	1080	2201
20	26749807	1090	2219
20	27031185	1100	2221
20	27323788	1110	2196
20	27564735	1120	2193
20	27826959	1130	2208
20	28075177	1140	2185
21	3358846	150.132508583	0.296040247
21	3380549	151.135527945	1.003019362
21	3409403	152.205089364	1.069561419
21	3431774	153.14989617	0.944806806
21	3439027	153.66396629	0.51407012
21	3460043	154.336235845	0.672269555
21	3494897	155.354652438	1.018416593
21	3496179	155.48266386	0.128011422
21	3505547	156.045842926	0.563179066
21	3506038	156.076997872	0.031154946
21	3533866	157.06121509	0.984217218
21	3539027	157.399383157	0.338168067
21	3548691	157.63142116	0.232038003
21	3552645	157.742754335	0.111333175
21	3553871	157.791503023	0.048748688
21	3585381	159.462139074	1.670636051
21	3595308	159.892648883	0.430509809
21	3628517	161.458955322	1.566306439
21	3655697	162.388943294	0.929987972
21	3667466	163.276631793	0.887688499
21	3673693	163.617035431	0.340403638
21	3674895	163.658178853	0.041143422
21	3690166	164.858889294	1.200710441
21	3716287	166.969502045	2.110612751
21	3727282	167.586304331	0.616802286
21	3728067	167.628069955	0.041765624
21	3760000	169.661990446	2.033920491
21	3773257	170.219944305	0.557953859
21	3774770	170.358485033	0.138540728
21	3800613	171.81219691	1.453711877
21	3802196	171.911684154	0.099487244
21	3812095	172.375218096	0.463533942
21	3818596	172.866497027	0.491278931
21	3847784	173.907426406	1.040929379
21	3860208	174.701904224	0.794477818
21	3862709	174.755765446	0.053861222
21	3866260	174.928996691	0.173231245
21	3923347	178.097154743	3.168158052
21	3925743	178.280718953	0.18356421
21	3927721	178.433482846	0.152763893
21	3940906	179.139096642	0.705613796
21	3941880	179.334921772	0.19582513
21	3942042	179.376437839	0.041516067
21	3954394	180.379924819	1.00348698
21	3961012	181.286243275	0.906318456
21	3993769	183.121660821	1.835417546
21	4042994	185.621098851	2.49943803
21	4052751	186.136017376	0.514918525
21	4053454	186.189885479	0.053868103
21	4073594	186.745938898	0.556053419
21	4108219	187.686556969	0.940618071
21	4150264	189.331955305	1.645398336
21	4153981	189.431629319	0.099674014
21	4162123	189.886825995	0.455196676
21	4177456	190.525461102	0.638635107
21	4205184	192.095798606	1.570337504
21	4220305	193.216320606	1.120522
21	4235934	194.002701744	0.786381138
21	4241370	194.155046007	0.152344263
21	4277190	196.218872302	2.063826295
21	4286696	196.758479676	0.539607374
21	4297036	197.613102128	0.854622452
21	4323845	198.305078938	0.69197681
21	4352200	200.013323003	1.708244065
21	4353497	200.048178223	0.03485522
21	4361027	200.288771469	0.240593246
21	4369840	200.954765323	0.665993854
21	4401896	202.09488702	1.140121697
21	4488806	205.203590998	3.108703978
21	4519264	206.186437222	0.982846224
21	4570911	208.199937917	2.013500695
21	4573511	208.343929211	0.143991294
21	4596543	209.677662985	1.333733774
21	4604209	210.11896211	0.441299125
21	4610728	210.527245536	0.408283426
21	4625270	211.492936178	0.965690642
21	4648345	212.729482559	1.236546381
21	4648837	212.767885649	0.03840309
21	4677847	214.50480474	1.736919091
21	4680870	214.64838689	0.14358215
21	4683191	214.816087385	0.167700495
21	4685801	214.951764392	0.135677007
21	4714155	216.746909777	1.795145385
21	4718032	216.993490329	0.246580552
21	4746395	218.45454448	1.461054151
21	4755528	219.172272266	0.717727786
21	4758892	219.41309463	0.240822364
21	4784364	220.271240911	0.858146281
21	4784863	220.295575873	0.024334962
21	4804646	221.105466733	0.80989086
21	4809387	221.487343944	0.381877211
21	4842038	222.223138099	0.735794155
21	4848986	222.484998135	0.261860036
21	4852814	222.651271925	0.16627379
21	4921946	225.629184294	2.977912369
21	4931323	226.385229481	0.756045187
21	4942522	226.738163435	0.352933954
21	5061398	231.772686669	5.034523234
21	5062419	231.83874358	0.066056911
21	5115168	233.46771904	1.62897546
21	5128105	233.903251909	0.435532869
21	5140666	234.146300829	0.24304892
21	5160043	235.084897778	0.938596949
21	5167911	235.504715993	0.419818215
21	5209865	237.110795448	1.606079455
21	5221042	237.331716358	0.22092091
21	5228529	237.46986241	0.138146052
21	5233066	237.615492726	0.145630316
21	5264314	238.831228003	1.215735277
21	5292171	239.914105139	1.082877136
21	5338407	242.054171624	2.140066485
21	5347751	242.445600777	0.391429153
21	5421240	245.299469097	2.85386832
21	5430247	245.579802615	0.280333518
21	5433363	245.736205569	0.156402954
21	5482427	247.437694219	1.70148865
21	5502210	247.994872325	0.557178106
21	5521769	248.776933808	0.782061483
21	5524686	248.987713956	0.210780148
21	5561999	250.107202766	1.11948881
21	5608787	252.515482718	2.408279952
21	5617908	253.106380996	0.590898278
21	5623338	253.52701687	0.420635874
21	5627747	253.845836903	0.318820033
21	5634027	254.231349735	0.385512832
21	5646679	254.803556198	0.572206463
21	5649697	255.012983515	0.209427317
21	5652783	255.176656988	0.163673473
21	5654578	255.283198877	0.106541889
21	5672962	255.878515141	0.595316264
21	5677307	256.08212591	0.203610769
21	5678524	256.158240943	0.076115033
21	5684200	256.452778916	0.294537973
21	5690936	256.778255004	0.325476088
21	5719786	257.806901269	1.028646265
21	5728781	258.233575934	0.426674665
21	5732464	258.511925308	0.278349374
21	5765352	260.065504332	1.553579024
21	5783494	260.76600012	0.700495788
21	5786612	260.943260728	0.177260608
21	5821925	262.592522627	1.649261899
21	5843258	263.443700992	0.851178365
21	5845714	263.581091497	0.137390505
21	5857047	263.89377555	0.312684053
21	5858017	263.945625418	0.051849868
21	5935044	266.45253184	2.506906422
21	5938636	266.609731891	0.157200051
21	5966549	267.664502766	1.054770875
21	5985752	268.345259279	0.680756513
21	6001041	269.299325766	0.954066487
21	6010462	269.723076904	0.423751138
21	6026260	270.398208479	0.675131575
21	6027423	270.512908099	0.11469962
21	6034012	270.979989366	0.467081267
21	6036700	271.073446445	0.093457079
21	6051888	272.072041384	0.998594939
21	6065460	272.818856045	0.746814661
21	6077804	273.186305848	0.367449803
21	6103642	274.402292756	1.215986908
21	6103953	274.410020165	0.007727409
21	6104321	274.418408274	0.008388109
21	6114831	274.720326048	0.301917774
21	6126885	275.189420747	0.469094699
21	6128184	275.297588786	0.108168039
21	6143109	275.911446568	0.613857782
21	6162127	276.736059082	0.824612514
21	6173582	277.265238716	0.529179634
21	6173846	277.277550875	0.012312159
21	6228338	278.953797049	1.676246174
21	6244364	279.539821044	0.586023995
21	6259468	280.458335802	0.918514758
21	6264363	280.698643882	0.24030808
21	6270792	280.819865374	0.121221492
21	6300415	282.117862266	1.297996892
21	6313341	282.629175306	0.51131304
21	6328284	283.299984064	0.670808758
21	6333743	283.568001814	0.26801775
21	6343737	284.023826633	0.455824819
21	6345896	284.196594235	0.172767602
21	6385535	286.11499272	1.918398485
21	6408354	287.012078745	0.897086025
21	6568153	292.802548206	5.790469461
21	6583881	293.397343647	0.594795441
21	6591053	293.559304969	0.161961322
21	6657140	296.467613773	2.908308804
21	6687056	298.022985799	1.555372026
21	6737866	300.202544057	2.179558258
21	6755084	300.728879574	0.526335517
21	6780281	301.425262109	0.696382535
21	6783648	301.602957265	0.177695156
21	6821250	303.354895197	1.751937932
21	6826745	303.702847658	0.347952461
21	6840237	304.826863725	1.124016067
21	6842450	305.001098877	0.174235152
21	6848440	305.266352749	0.265253872
21	6887121	307.314826286	2.048473537
21	6888292	307.416192538	0.101366252
21	6937943	309.543647648	2.12745511
21	6946386	309.853198579	0.309550931
21	6946754	309.875888172	0.022689593
21	6949635	310.063963837	0.188075665
21	6953566	310.37060937	0.306645533
21	6955703	310.48170462	0.11109525
21	6977419	311.111497936	0.629793316
21	6984682	311.457181074	0.345683138
21	7008842	312.530288116	1.073107042
21	7034599	313.391988017	0.861699901
21	7041175	313.698521109	0.306533092
21	7065986	314.681632562	0.983111453
21	7069551	314.9174745	0.235841938
21	7104503	316.060016117	1.142541617
21	7108593	316.26321374	0.203197623
21	7120426	316.703412382	0.440198642
21	7150564	318.082577023	1.379164641
21	7185999	319.629587249	1.547010226
21	7190440	319.82362869	0.194041441
21	7216757	320.786110223	0.962481533
21	7239792	321.561134838	0.775024615
21	7243114	321.701083605	0.139948767
21	7266707	322.790183312	1.089099707
21	7286494	323.681495412	0.8913121
21	7319954	325.213846726	1.532351314
21	7322627	325.429674663	0.215827937
21	7324601	325.644416183	0.21474152
21	7345784	326.947367827	1.302951644
21	7349497	327.128728998	0.181361171
21	7364125	327.634425968	0.50569697
21	7386682	328.605245757	0.970819789
21	7389974	328.855136872	0.249891115
21	7431503	330.703790803	1.848653931
21	7476495	333.344389612	2.640598809
21	7476735	333.364302904	0.019913292
21	7481672	333.682067371	0.317764467
21	7506595	334.792807841	1.11074047
21	7518706	335.422890243	0.630082402
21	7535981	335.960319362	0.537429119
21	7574759	338.026524691	2.066205329
21	7577741	338.264465806	0.237941115
21	7580935	338.564686279	0.300220473
21	7597159	339.238522504	0.673836225
21	7613108	340.026788891	0.788266387
21	7615145	340.127774615	0.100985724
21	7623644	340.505374277	0.377599662
21	7661063	342.228589278	1.723215001
21	7667259	342.695056382	0.466467104
21	7669348	342.941509463	0.246453081
21	7712371	344.312978012	1.371468549
21	7713466	344.415310874	0.102332862
21	7722512	344.997666946	0.582356072
21	7726445	345.120684726	0.12301778
21	7745430	345.756215917	0.635531191
21	7758112	346.36300691	0.606790993
21	7797380	349.131001586	2.767994676
21	7797639	349.15021266	0.019211074
21	7805250	349.704014088	0.553801428
21	7807041	349.81121081	0.107196722
21	7838580	351.920540193	2.109329383
21	7868330	352.998598347	1.078058154
21	7916306	354.675092092	1.676493745
21	7954232	356.149370406	1.474278314
21	7955127	356.222928033	0.073557627
21	7968009	356.837260833	0.6143328
21	7981709	357.418106606	0.580845773
21	7996583	357.932577102	0.514470496
21	8009107	358.274955395	0.342378293
21	8033330	359.189351566	0.914396171
21	8035496	359.370227816	0.18087625
21	8053069	360.099663151	0.729435335
21	8081653	360.965912668	0.866249517
21	8106020	362.345882216	1.379969548
21	8124228	363.226715556	0.88083334
21	8140962	363.768515827	0.541800271
21	8152797	364.044419022	0.275903195
21	8153620	364.076430932	0.03201191
21	8206284	365.725523097	1.649092165
21	8262654	367.073790867	1.34826777
21	8288053	367.892060323	0.818269456
21	8395551	371.805034642	3.912974319
21	8402272	372.10415687	0.299122228
21	8417002	372.728786243	0.624629373
21	8417215	372.744874339	0.016088096
21	8433745	373.60378147	0.858907131
21	8441104	373.849104203	0.245322733
21	8446880	374.273519136	0.424414933
21	8457755	374.994586562	0.721067426
21	8475306	375.804100839	0.809514277
21	8484021	376.142949576	0.338848737
21	8489330	376.43538954	0.292439964
21	8498342	377.025906718	0.590517178
21	8500424	377.191083754	0.165177036
21	8506636	377.563532822	0.372449068
21	8506768	377.57441923	0.010886408
21	8531253	378.542573939	0.968154709
21	8533877	378.681507606	0.138933667
21	8566589	379.703081297	1.021573691
21	8570452	379.8744168	0.171335503
21	8584687	380.477935801	0.603519001
21	8607667	381.283673138	0.805737337
21	8618540	381.673263647	0.389590509
21	8624048	381.853116698	0.179853051
21	8672225	384.341104538	2.48798784
21	8704232	385.6892496	1.348145062
21	8760716	387.364178945	1.674929345
21	8796121	388.5512681	1.187089155
21	8801701	388.751308343	0.200040243
21	8802328	388.766425341	0.015116998
21	8833121	389.645840474	0.879415133
21	8903066	392.197551093	2.551710619
21	8919681	392.679104763	0.48155367
21	8971193	394.577653116	1.898548353
21	8992993	395.157589662	0.579936546
21	8993278	395.170221034	0.012631372
21	9000986	395.483505313	0.313284279
21	9001540	395.530054121	0.046548808
21	9006028	395.840990533	0.310936412
21	9057152	398.400055669	2.559065136
21	9060512	398.567104935	0.167049266
21	9113898	401.161636973	2.594532038
21	9133098	402.518464532	1.356827559
21	9186381	404.861023753	2.342559221
21	9188641	404.918333141	0.057309388
21	9231707	406.806387072	1.888053931
21	9253223	407.712923326	0.906536254
21	9262874	408.411552958	0.698629632
21	9278150	408.977176172	0.565623214
21	9285902	409.589217126	0.612040954
21	9292715	410.039101918	0.449884792
21	9304163	410.849331139	0.810229221
21	9319147	412.019575934	1.170244795
21	9322350	412.191695845	0.172119911
21	9324344	412.363325564	0.171629719
21	9325826	412.583297055	0.219971491
21	9335013	413.250748138	0.667451083
21	9355673	414.451561343	1.200813205
21	9410843	416.539090107	2.087528764
21	9447223	417.826890997	1.28780089
21	9450785	417.980494723	0.153603726
21	9453289	418.103648964	0.123154241
21	9455411	418.212259269	0.108610305
21	9474799	418.921086048	0.708826779
21	9500541	419.629711666	0.708625618
21	9506690	419.93304133	0.303329664
21	9546460	421.61066612	1.67762479
21	9583565	423.864151748	2.253485628
21	9588871	424.250680898	0.38652915
21	9590923	424.393919044	0.143238146
21	9592969	424.570098393	0.176179349
21	9594139	424.681657631	0.111559238
21	9611802	425.73985398	1.058196349
21	9646760	427.842450925	2.102596945
21	9653906	428.20076491	0.358313985
21	9716759	430.900104192	2.699339282
21	9789212	434.229153318	3.329049126
21	9825773	435.475943735	1.246790417
21	9840075	436.014153334	0.538209599
21	9840570	436.05968474	0.045531406
21	9858507	437.105293262	1.045608522
21	9879445	437.741081621	0.635788359
21	9889854	437.978758194	0.237676573
21	9912979	438.603546007	0.624787813
21	9925099	439.114122167	0.51057616
21	10033154	442.243495436	3.129373269
21	10036858	442.375854872	0.132359436
21	10038059	442.428508857	0.052653985
21	10070905	443.368120737	0.93961188
21	10118385	445.158217432	1.790096695
21	10123767	445.293593551	0.135376119
21	10128562	445.481536667	0.187943116
21	10143475	446.134583291	0.653046624
21	10172589	447.129827595	0.995244304
21	10180704	447.324608107	0.194780512
21	10217852	448.340657625	1.016049518
21	10224755	448.61279561	0.272137985
21	10236726	449.109934564	0.497138954
21	10263500	450.391571473	1.281636909
21	10273043	450.864992724	0.473421251
21	10300874	452.128355532	1.263362808
21	10312482	452.713843043	0.585487511
21	10319179	452.896044503	0.18220146
21	10394720	455.433687745	2.537643242
21	10397981	455.492739561	0.059051816
21	10404991	455.652337099	0.159597538
21	10423753	456.144099859	0.49176276
21	10458596	457.067251322	0.923151463
21	10460426	457.129224028	0.061972706
21	10485729	457.826878656	0.697654628
21	10487208	457.864458466	0.03757981
21	10509998	458.613148638	0.748690172
21	10522141	459.315007758	0.70185912
21	10523011	459.360099222	0.045091464
21	10539734	459.855480791	0.495381569
21	10551036	460.209541069	0.354060278
21	10567636	461.018503596	0.808962527
21	10569349	461.054063142	0.035559546
21	10575315	461.157324027	0.103260885
21	10594989	461.848701717	0.69137769
21	10603955	462.084874443	0.236172726
21	10647376	463.39439421	1.309519767
21	10703754	465.191453465	1.797059255
21	10722480	465.884646018	0.693192553
21	10724146	466.022583646	0.137937628
21	10724248	466.032416056	0.00983241
21	10726627	466.199270318	0.166854262
21	10727357	466.247345835	0.048075517
21	10734059	466.455014025	0.20766819
21	10750152	466.856616852	0.401602827
21	10753368	466.959301397	0.102684545
21	10753380	466.96049436	0.001192963
21	10800407	468.451188293	1.490693933
21	10809084	468.757970275	0.306781982
21	10836278	470.007828244	1.249857969
21	10838122	470.149258408	0.141430164
21	10848863	470.651576375	0.502317967
21	10892639	472.48653158	1.834955205
21	10904109	472.93902022	0.45248864
21	10907978	473.158717938	0.219697718
21	10957656	475.475181448	2.31646351
21	10968976	475.971578753	0.496397305
21	10972789	476.129751898	0.158173145
21	10974687	476.218083512	0.088331614
21	11040150	478.873773675	2.655690163
21	11048738	479.091316435	0.21754276
21	11076919	480.319939419	1.228622984
21	11112100	480.98912713	0.669187711
21	11122127	481.332248526	0.343121396
21	11129332	481.649343827	0.317095301
21	11141250	482.074220089	0.424876262
21	11158017	482.415216141	0.340996052
21	11207203	484.066681348	1.651465207
21	11214578	484.208805571	0.142124223
21	11231909	484.623061467	0.414255896
21	11279782	486.072717228	1.449655761
21	11294206	486.359465934	0.286748706
21	11297363	486.461937744	0.10247181
21	11333401	487.298274141	0.836336397
21	11344211	487.622495685	0.324221544
21	11375782	488.661874083	1.039378398
21	11397503	489.214201769	0.552327686
21	11447370	490.919780605	1.705578836
21	11469598	491.746630883	0.826850278
21	11520217	493.164697667	1.418066784
21	11537037	493.677346899	0.512649232
21	11543687	493.782111091	0.104764192
21	11636392	495.960248876	2.178137785
21	11660046	496.389547104	0.429298228
21	11673823	496.719370304	0.3298232
21	11713844	497.680328731	0.960958427
21	11771230	499.075909813	1.395581082
21	11784252	499.353750696	0.277840883
21	11788257	499.482944409	0.129193713
21	11828916	500.546393169	1.06344876
21	11836684	500.756620562	0.210227393
21	11847244	500.976680011	0.220059449
21	11853012	501.1282919	0.151611889
21	11889636	502.378370094	1.250078194
21	11955887	504.841525239	2.463155145
21	11973981	505.36473911	0.523213871
21	11999203	506.04859166	0.68385255
21	12063749	508.154728397	2.106136737
21	12078580	508.816319932	0.661591535
21	12135549	510.621610402	1.80529047
21	12182329	512.25049725	1.628886848
21	12192610	512.730800957	0.480303707
21	12207986	513.374918419	0.644117462
21	12217641	513.756965097	0.382046678
21	12217675	513.759220171	0.002255074
21	12218056	513.785200414	0.025980243
21	12232096	514.616992869	0.831792455
21	12239146	514.845126779	0.22813391
21	12243597	515.031422669	0.18629589
21	12260921	515.706397636	0.674974967
21	12270894	516.133580708	0.427183072
21	12277004	516.346593753	0.213013045
21	12306288	517.996595212	1.650001459
21	12306888	518.052447824	0.055852612
21	12307803	518.13246306	0.080015236
21	12322691	518.906385581	0.773922521
21	12333465	519.686774062	0.780388481
21	12337036	519.941000174	0.254226112
21	12354276	521.050209386	1.109209212
21	12364109	521.486873611	0.436664225
21	12370876	521.677064462	0.190190851
21	12389528	522.555621858	0.878557396
21	12395312	522.729819988	0.17419813
21	12413276	523.507052606	0.777232618
21	12430838	524.290261376	0.78320877
21	12440051	524.761136839	0.470875463
21	12452573	525.266659358	0.505522519
21	12473728	526.046982018	0.78032266
21	12500184	526.954044626	0.907062608
21	12525059	527.598904494	0.644859868
21	12548559	528.224204356	0.625299862
21	12594273	529.58297656	1.358772204
21	12599531	529.714601605	0.131625045
21	12623838	530.504652032	0.790050427
21	12632624	530.883239006	0.378586974
21	12639912	531.25569409	0.372455084
21	12656013	531.810813957	0.555119867
21	12658380	531.90567109	0.094857133
21	12701558	533.21514606	1.30947497
21	12705002	533.427328159	0.212182099
21	12715863	534.101084991	0.673756832
21	12723239	534.272055734	0.170970743
21	12735362	534.551846208	0.279790474
21	12740869	534.709019897	0.157173689
21	12763317	535.488522938	0.779503041
21	12797114	536.96107708	1.472554142
21	12818624	538.274612159	1.313535079
21	12837308	539.063791885	0.789179726
21	12864504	540.535795997	1.472004112
21	12871325	540.740138404	0.204342407
21	12880357	541.074424034	0.33428563
21	12914753	543.054804947	1.980380913
21	12953018	544.737579877	1.68277493
21	13007609	546.655071486	1.917491609
21	13017134	547.030538386	0.3754669
21	13027239	547.577330304	0.546791918
21	13028906	547.681729853	0.104399549
21	13087300	549.841052314	2.159322461
21	13140685	551.908012194	2.06695988
21	13155425	552.371520761	0.463508567
21	13172359	553.048129926	0.676609165
21	13178444	553.258972751	0.210842825
21	13181497	553.401219037	0.142246286
21	13194083	553.951590501	0.550371464
21	13201992	554.233061332	0.281470831
21	13202758	554.257028464	0.023967132
21	13208834	554.477240462	0.220211998
21	13217774	554.720656723	0.243416261
21	13227805	555.14047507	0.419818347
21	13238442	555.654143079	0.513668009
21	13282245	556.78332899	1.129185911
21	13297123	557.395811142	0.612482152
21	13299852	557.495832722	0.10002158
21	13321491	557.997241948	0.501409226
21	13343075	558.696480783	0.699238835
21	13442049	561.272360073	2.57587929
21	13457156	561.906193919	0.633833846
21	13475093	562.297360151	0.391166232
21	13484688	562.487539325	0.190179174
21	13496920	562.771691586	0.284152261
21	13499518	562.869577776	0.09788619
21	13502714	562.922396916	0.05281914
21	13545671	564.544694994	1.622298078
21	13548029	564.616453664	0.07175867
21	13580054	565.903864333	1.287410669
21	13580363	565.917190987	0.013326654
21	13594328	566.648945757	0.73175477
21	13646050	567.776216506	1.127270749
21	13663354	568.478327413	0.702110907
21	13694715	569.40878199	0.930454577
21	13759820	571.704469153	2.295687163
21	13775560	572.168861963	0.46439281
21	13784004	572.535419854	0.366557891
21	13808797	573.173051861	0.637632007
21	13834414	573.855394938	0.682343077
21	13835799	573.914209036	0.058814098
21	13836898	573.980829602	0.066620566
21	13847160	574.350615031	0.369785429
21	13869725	575.271529096	0.920914065
21	13873219	575.407734542	0.136205446
21	13916632	577.149240313	1.741505771
21	13940821	578.265922634	1.116682321
21	13947769	578.618152167	0.352229533
21	13972322	579.78089076	1.162738593
21	13984053	580.322031167	0.541140407
21	13991563	580.59946754	0.277436373
21	13991584	580.601255796	0.001788256
21	14020792	582.125457194	1.524201398
21	14079338	584.696027075	2.570569881
21	14099583	585.214831099	0.518804024
21	14125804	586.602135005	1.387303906
21	14165461	588.39808042	1.795945415
21	14178768	588.910836244	0.512755824
21	14180041	588.978599653	0.067763409
21	14186659	589.198410657	0.219811004
21	14193887	589.50313399	0.304723333
21	14213254	590.428742359	0.925608369
21	14264903	592.165913986	1.737171627
21	14285106	592.897822717	0.731908731
21	14295103	593.105821044	0.207998327
21	14348141	594.746523554	1.64070251
21	14358816	595.215835487	0.469311933
21	14363909	595.414003796	0.198168309
21	14419598	597.097315301	1.683311505
21	14460553	597.781336831	0.68402153
21	14461375	597.800339381	0.01900255
21	14502957	598.971891476	1.171552095
21	14503478	598.989792606	0.01790113
21	14506433	599.115109606	0.125317
21	14560683	600.441174151	1.326064545
21	14598941	601.889704517	1.448530366
21	14636554	603.318768277	1.42906376
21	14668300	604.405793559	1.087025282
21	14673926	604.651131212	0.245337653
21	14686078	604.938366228	0.287235016
21	14727233	606.192176416	1.253810188
21	14812796	608.848139817	2.655963401
21	14832717	609.242350048	0.394210231
21	14851442	609.800564786	0.558214738
21	14868581	610.330106026	0.52954124
21	14873988	610.526682627	0.196576601
21	14878664	610.675320769	0.148638142
21	14886018	610.951397576	0.276076807
21	14960277	613.073492316	2.12209474
21	14982270	613.721376471	0.647884155
21	14991600	614.006415518	0.285039047
21	14998633	614.371228971	0.364813453
21	15008416	614.896643955	0.525414984
21	15053234	616.700124997	1.803481042
21	15068828	617.418380465	0.718255468
21	15078515	617.755317503	0.336937038
21	15092142	618.380288478	0.624970975
21	15093974	618.436151112	0.055862634
21	15111028	619.087409768	0.651258656
21	15127346	619.839444621	0.752034853
21	15130228	620.009511564	0.170066943
21	15145994	620.526833876	0.517322312
21	15160291	620.978801134	0.451967258
21	15183505	621.975790024	0.99698889
21	15259134	624.385028614	2.40923859
21	15269356	624.752442261	0.367413647
21	15289853	625.71112271	0.958680449
21	15337176	628.380381205	2.669258495
21	15339437	628.562036783	0.181655578
21	15344248	628.925277649	0.363240866
21	15345497	628.992542235	0.067264586
21	15353561	629.473487604	0.480945369
21	15363440	630.129224183	0.655736579
21	15368407	630.33379901	0.204574827
21	15384841	631.227195021	0.893396011
21	15389999	631.575689116	0.348494095
21	15391088	631.63906508	0.063375964
21	15399505	632.048918916	0.409853836
21	15409513	632.281583946	0.23266503
21	15501275	634.837666988	2.556083042
21	15566355	636.93760569	2.099938702
21	15590956	637.881018458	0.943412768
21	15598327	638.179617945	0.298599487
21	15646243	639.924724627	1.745106682
21	15647430	639.992202411	0.067477784
21	15721461	642.126701554	2.134499143
21	15748750	643.084254023	0.957552469
21	15794777	644.740340568	1.656086545
21	15800238	645.142641998	0.40230143
21	15868021	647.87960196	2.736959962
21	15893282	648.730329276	0.850727316
21	15912818	649.414286948	0.683957672
21	15926219	649.924939696	0.510652748
21	15940722	650.455122277	0.530182581
21	15959334	650.819551913	0.364429636
21	15966096	651.095608951	0.276057038
21	15997333	652.220524214	1.124915263
21	16010663	652.739804855	0.519280641
21	16022486	653.247549503	0.507744648
21	16047686	654.795118598	1.547569095
21	16056499	655.042146797	0.247028199
21	16071270	655.839398558	0.797251761
21	16082709	656.067014483	0.227615925
21	16086154	656.226897069	0.159882586
21	16098134	656.649269738	0.422372669
21	16108461	657.091777614	0.442507876
21	16141520	657.862667302	0.770889688
21	16155565	658.162316019	0.299648717
21	16208344	659.562287447	1.399971428
21	16231061	659.991414366	0.429126919
21	16281976	661.587233838	1.595819472
21	16312580	662.764764254	1.177530416
21	16328021	663.796737265	1.031973011
21	16329488	663.891492543	0.094755278
21	16332647	664.114023281	0.222530738
21	16339143	664.645250679	0.531227398
21	16341695	664.828890318	0.183639639
21	16381447	667.232182505	2.403292187
21	16401493	668.248360718	1.016178213
21	16476735	670.59715376	2.348793042
21	16479999	670.671175327	0.074021567
21	16490458	670.965520834	0.294345507
21	16541021	672.791837749	1.826316915
21	16549610	673.340360804	0.548523055
21	16551432	673.567076518	0.226715714
21	16555470	673.898681158	0.33160464
21	16562857	674.241168657	0.342487499
21	16586637	675.150436811	0.909268154
21	16590513	675.327292415	0.176855604
21	16599031	675.724719995	0.39742758
21	16617032	676.265199588	0.540479593
21	16631352	676.799605313	0.534405725
21	16643117	677.36154671	0.561941397
21	16650371	677.713020194	0.351473484
21	16728926	680.673238437	2.960218243
21	16734455	680.909189151	0.235950714
21	16735763	680.958625303	0.049436152
21	16738277	681.068351984	0.109726681
21	16762103	682.084082838	1.015730854
21	16769889	682.476174083	0.392091245
21	16778887	682.804721841	0.328547758
21	16779196	682.81564102	0.010919179
21	16790579	683.294285742	0.478644722
21	16798877	683.792876275	0.498590533
21	16800494	683.925260275	0.132384
21	16811905	684.479127811	0.553867536
21	16829477	685.007574814	0.528447003
21	16884179	687.351128802	2.343553988
21	16886748	687.47428497	0.123156168
21	16922939	688.733010922	1.258725952
21	16927954	688.85162204	0.118611118
21	16950841	689.699168426	0.847546386
21	16974543	690.672706075	0.973537649
21	16991444	691.280371039	0.607664964
21	17008181	692.108533261	0.828162222