version 2
run PastryDHT-6-20211207-00:27:00-4724
attr Lifetime 700s
attr configname PastryDHT
attr datetime 20211207-00:27:00
attr experiment PastryDHT
attr inifile configs.ini
attr iterationvars $Lifetime=700s
attr iterationvars2 "$Lifetime=700s, $repetition=0"
attr measurement $Lifetime=700s
attr network oversim.underlay.simpleunderlay.SimpleUnderlayNetwork
attr processid 4724
attr repetition 0
attr replication #0
attr resultdir results
attr runnumber 6
attr seedset 6

vector 37  SimpleUnderlayNetwork.globalObserver.globalStatistics  "GlobalNodeList: Number of nodes"  ETV
vector 38  SimpleUnderlayNetwork.globalObserver.globalStatistics  "GlobalDhtTestMap: Number of stored DHT entries"  ETV
vector 39  SimpleUnderlayNetwork.globalObserver.globalStatistics  "LifetimeChurn: Time between deletes"  ETV
vector 40  SimpleUnderlayNetwork.globalObserver.globalStatistics  "LifetimeChurn: Session Time"  ETV
vector 41  SimpleUnderlayNetwork.globalObserver.globalStatistics  "LifetimeChurn: Time between creates"  ETV
37	2931483	150	514
37	3597461	200	515
37	4283739	250	518
37	5085840	300	512
37	5766094	350	494
37	6592344	400	502
37	7279486	450	509
37	8039858	500	510
37	8794064	550	505
37	9629612	600	512
37	10439968	650	516
37	11165194	700	511
37	11915910	750	494
37	12774300	800	492
37	13666208	850	502
37	14368989	900	504
37	15294353	950	511
37	16268922	1000	516
37	17078715	1050	525
37	17810985	1100	525
38	2931484	150	759
38	3049861	160	839
38	3177991	170	929
38	3340331	180	1009
38	3454869	190	1077
38	3597462	200	1150
38	3738676	210	1242
38	3866082	220	1328
38	3999388	230	1412
38	4129830	240	1479
38	4283740	250	1554
38	4462700	260	1642
38	4607756	270	1729
38	4804148	280	1814
38	4946983	290	1895
38	5085841	300	1955
38	5264477	310	2039
38	5414534	320	2133
38	5548687	330	2207
38	5664805	340	2293
38	5766095	350	2375
38	5898297	360	2423
38	6073129	370	2414
38	6253005	380	2421
38	6416863	390	2421
38	6592345	400	2406
38	6705943	410	2401
38	6838472	420	2421
38	7001410	430	2408
38	7135491	440	2408
38	7279487	450	2407
38	7443184	460	2406
38	7610721	470	2392
38	7762569	480	2387
38	7914857	490	2394
38	8039859	500	2404
38	8238817	510	2401
38	8372906	520	2392
38	8499718	530	2389
38	8618081	540	2409
38	8794065	550	2401
38	8952027	560	2390
38	9141330	570	2399
38	9292096	580	2391
38	9448962	590	2390
38	9629613	600	2405
38	9803723	610	2404
38	9942882	620	2381
38	10054889	630	2397
38	10227179	640	2393
38	10439969	650	2400
38	10614064	660	2416
38	10758639	670	2414
38	10882938	680	2399
38	11047477	690	2396
38	11165195	700	2397
38	11347615	710	2409
38	11513677	720	2407
38	11669196	730	2421
38	11780557	740	2411
38	11915911	750	2388
38	12047596	760	2388
38	12242287	770	2408
38	12409670	780	2404
38	12601864	790	2398
38	12774301	800	2395
38	12936621	810	2376
38	13122649	820	2379
38	13294971	830	2401
38	13458141	840	2392
38	13666209	850	2386
38	13830069	860	2384
38	13979167	870	2363
38	14127005	880	2358
38	14231621	890	2390
38	14368990	900	2388
38	14543931	910	2376
38	14715330	920	2379
38	14891681	930	2371
38	15087042	940	2381
38	15294354	950	2366
38	15492445	960	2377
38	15664990	970	2374
38	15869911	980	2366
38	16084441	990	2362
38	16268923	1000	2375
38	16428327	1010	2367
38	16582057	1020	2379
38	16748195	1030	2355
38	16915456	1040	2383
38	17078716	1050	2388
38	17249554	1060	2401
38	17414012	1070	2396
38	17537614	1080	2401
38	17651494	1090	2403
38	17810986	1100	2397
38	17964406	1110	2423
38	18129415	1120	2430
38	18250284	1130	2403
38	18408918	1140	2378
39	2934647	150.495475135	2.939919251
39	2935802	150.618547694	0.123072559
39	2956223	151.935736697	1.317189003
39	2992586	154.491501591	2.555764894
39	2993174	154.613431253	0.121929662
39	3021615	157.231725507	2.618294254
39	3049562	159.980598033	2.748872526
39	3054490	160.346734963	0.36613693
39	3058769	160.575331957	0.228596994
39	3111588	165.320689877	4.74535792
39	3168088	169.100725801	3.780035924
39	3170586	169.268534387	0.167808586
39	3209937	172.312453437	3.04391905
39	3225563	173.393512622	1.081059185
39	3228263	173.592796693	0.199284071
39	3242490	174.894652233	1.30185554
39	3273290	176.355153104	1.460500871
39	3290829	176.903134398	0.547981294
39	3312294	177.922219596	1.019085198
39	3325953	178.832044385	0.909824789
39	3358152	181.265735596	2.433691211
39	3377091	182.223564981	0.957829385
39	3386896	183.312583984	1.089019003
39	3392147	183.913139635	0.600555651
39	3395749	184.509506252	0.596366617
39	3398246	184.756195625	0.246689373
39	3410448	185.649718395	0.89352277
39	3440403	188.365618221	2.715899826
39	3446759	189.105766772	0.740148551
39	3465939	191.310654987	2.204888215
39	3467270	191.541238101	0.230583114
39	3517476	194.084701319	2.543463218
39	3534908	195.029031953	0.944330634
39	3561364	197.41891159	2.389879637
39	3570689	197.946648942	0.527737352
39	3600648	200.447697506	2.501048564
39	3672379	204.516530826	4.06883332
39	3701905	206.172640135	1.656109309
39	3743422	210.525993416	4.353353281
39	3759421	211.959813196	1.43381978
39	3769140	213.124146968	1.164333772
39	3772188	213.549640357	0.425493389
39	3773364	213.718620034	0.168979677
39	3804687	215.455522885	1.736902851
39	3828169	217.014845817	1.559322932
39	3852878	218.939751628	1.924905811
39	3856621	219.098596311	0.158844683
39	3862484	219.709241047	0.610644736
39	3865281	219.934940798	0.225699751
39	3940283	224.985897634	5.050956836
39	3947733	225.948651926	0.962754292
39	3950875	226.308132634	0.359480708
39	3955451	226.537237087	0.229104453
39	3992207	229.315281817	2.77804473
39	4000089	230.152869063	0.837587246
39	4005429	230.65657261	0.503703547
39	4025377	231.295461987	0.638889377
39	4031698	231.546502321	0.251040334
39	4101565	236.868850315	5.322347994
39	4102605	237.078186675	0.20933636
39	4103135	237.157149816	0.078963141
39	4119434	238.554987766	1.39783795
39	4129166	239.86325807	1.308270304
39	4131663	240.30018667	0.4369286
39	4148081	241.766775144	1.466588474
39	4154174	242.382550323	0.615775179
39	4191822	244.860923618	2.478373295
39	4215592	246.128474812	1.267551194
39	4217047	246.239579463	0.111104651
39	4220771	246.599956906	0.360377443
39	4227803	247.28227265	0.682315744
39	4309687	252.019177842	4.736905192
39	4322864	252.834508617	0.815330775
39	4377258	255.702669854	2.868161237
39	4378681	255.874921819	0.172251965
39	4381016	256.063514048	0.188592229
39	4389205	256.293944266	0.230430218
39	4395970	256.610293277	0.316349011
39	4415133	257.093971618	0.483678341
39	4420153	257.367902866	0.273931248
39	4453735	259.144237955	1.776335089
39	4474566	261.246694565	2.10245661
39	4487633	262.042792425	0.79609786
39	4495210	262.786012372	0.743219947
39	4507706	263.638068857	0.852056485
39	4536835	265.05857097	1.420502113
39	4564374	267.168124146	2.109553176
39	4584761	268.360290499	1.192166353
39	4601394	269.551671184	1.191380685
39	4608766	270.100227625	0.548556441
39	4619568	271.045600614	0.945372989
39	4679012	275.476376836	4.430776222
39	4686225	275.699757278	0.223380442
39	4689734	275.942787277	0.243029999
39	4690428	276.051637345	0.108850068
39	4723749	277.211148157	1.159510812
39	4787334	279.080642302	1.869494145
39	4826267	281.239143532	2.15850123
39	4855273	283.595954554	2.356811022
39	4856433	283.739524904	0.14357035
39	4861370	284.180470403	0.440945499
39	4862121	284.203038098	0.022567695
39	4916100	287.563886319	3.360848221
39	4928543	288.43355011	0.869663791
39	4929840	288.549690422	0.116140312
39	4947820	290.120298414	1.570607992
39	4948224	290.201280629	0.080982215
39	4967731	291.731924922	1.530644293
39	4993326	294.106661768	2.374736846
39	4994409	294.2617366	0.155074832
39	5007871	295.42271423	1.16097763
39	5015341	296.294170736	0.871456506
39	5022172	296.849430295	0.555259559
39	5033922	297.141384342	0.291954047
39	5091562	300.61208829	3.470703948
39	5093443	300.934312823	0.322224533
39	5105378	301.827459796	0.893146973
39	5111253	302.519344349	0.691884553
39	5114160	302.832502384	0.313158035
39	5122749	303.487244109	0.654741725
39	5162083	305.44295536	1.955711251
39	5173917	305.861301266	0.418345906
39	5182270	306.614176869	0.752875603
39	5239247	308.528198466	1.914021597
39	5276900	310.677347201	2.149148735
39	5293740	312.180307566	1.502960365
39	5298906	312.291142982	0.110835416
39	5334015	314.024639482	1.7334965
39	5343162	314.643863194	0.619223712
39	5364946	316.134381501	1.490518307
39	5374730	316.490536618	0.356155117
39	5375938	316.529714027	0.039177409
39	5384865	317.349048938	0.819334911
39	5390001	317.957407807	0.608358869
39	5408105	319.407858998	1.450451191
39	5433955	321.013822523	1.605963525
39	5436176	321.195189271	0.181366748
39	5502951	325.647683132	4.452493861
39	5520340	327.260259689	1.612576557
39	5535910	329.149403608	1.889143919
39	5536248	329.159308793	0.009905185
39	5545401	329.548867686	0.389558893
39	5550585	330.310567105	0.761699419
39	5557255	331.076862872	0.766295767
39	5563942	331.717680016	0.640817144
39	5585653	333.313405634	1.595725618
39	5590275	333.529107131	0.215701497
39	5637102	336.385853546	2.856746415
39	5646988	337.466605133	1.080751587
39	5647967	337.578401939	0.111796806
39	5654187	338.417554362	0.839152423
39	5671111	341.011049565	2.593495203
39	5710801	343.999920842	2.988871277
39	5742597	347.223657771	3.223736929
39	5785716	352.070432678	4.846774907
39	5794672	352.353378105	0.282945427
39	5799111	352.740828129	0.387450024
39	5844763	356.033925565	3.293097436
39	5970668	363.40974241	7.375816845
39	6038610	367.35576235	3.94601994
39	6068942	369.751586952	2.395824602
39	6075391	370.07958751	0.328000558
39	6077174	370.162329321	0.082741811
39	6087543	370.850321072	0.687991751
39	6134408	374.146205683	3.295884611
39	6138090	374.364568363	0.21836268
39	6139391	374.467317414	0.102749051
39	6164324	375.563583393	1.096265979
39	6170005	376.219154662	0.655571269
39	6239928	379.191090974	2.971936312
39	6259110	380.322719709	1.131628735
39	6260218	380.39499369	0.072273981
39	6274002	380.98692929	0.5919356
39	6290992	381.720161804	0.733232514
39	6305805	382.731604121	1.011442317
39	6331211	384.557040264	1.825436143
39	6366937	386.792853016	2.235812752
39	6367017	386.802815097	0.009962081
39	6374585	387.285716785	0.482901688
39	6405685	389.244543617	1.958826832
39	6417666	390.076227893	0.831684276
39	6447405	391.899747402	1.823519509
39	6524446	395.223885041	3.324137639
39	6596425	400.56689334	5.343008299
39	6603828	401.577322262	1.010428922
39	6604445	401.62445278	0.047130518
39	6619576	403.763109758	2.138656978
39	6649787	406.401192035	2.638082277
39	6671646	407.552678406	1.151486371
39	6674180	407.806758126	0.25407972
39	6679625	408.320695034	0.513936908
39	6727568	412.116714301	3.796019267
39	6753065	415.178615239	3.061900938
39	6760627	416.240920598	1.062305359
39	6762283	416.426922782	0.186002184
39	6784590	417.576190711	1.149267929
39	6794056	418.00249248	0.426301769
39	6893084	422.853026175	4.850533695
39	6903678	423.56096036	0.707934185
39	6908034	424.239205911	0.678245551
39	6991684	429.232235875	4.993029964
39	7015747	430.76996359	1.537727715
39	7029725	432.188503625	1.418540035
39	7033145	432.518347271	0.329843646
39	7042927	433.68151019	1.163162919
39	7056379	435.075376514	1.393866324
39	7066963	436.013517591	0.938141077
39	7087085	436.683037777	0.669520186
39	7091697	437.35811344	0.675075663
39	7142103	440.708588169	3.350474729
39	7143455	440.864711141	0.156122972
39	7174602	442.817788511	1.95307737
39	7312151	451.507498777	8.689710266
39	7315366	451.825972928	0.318474151
39	7323072	452.691576715	0.865603787
39	7336095	453.379067971	0.687491256
39	7337128	453.45152201	0.072454039
39	7354652	454.631350584	1.179828574
39	7358594	454.850503271	0.219152687
39	7377989	455.947189242	1.096685971
39	7395477	457.108626559	1.161437317
39	7395561	457.117095826	0.008469267
39	7410065	458.467626305	1.350530479
39	7414316	458.781663585	0.31403728
39	7427618	459.279851419	0.498187834
39	7439126	459.692600245	0.412748826
39	7442910	459.975340834	0.282740589
39	7444557	460.140408886	0.165068052
39	7492427	464.189512457	4.049103571
39	7515304	465.157049989	0.967537532
39	7532176	466.338286081	1.181236092
39	7566307	467.447799436	1.109513355
39	7583225	468.471777977	1.023978541
39	7602213	469.321986831	0.850208854
39	7603485	469.445203245	0.123216414
39	7604082	469.513596416	0.068393171
39	7639790	471.842598352	2.329001936
39	7658096	473.638454507	1.795856155
39	7666536	474.495263714	0.856809207
39	7713945	477.47092316	2.975659446
39	7714057	477.47277907	0.00185591
39	7774320	481.153802297	3.681023227
39	7774821	481.233554856	0.079752559
39	7861511	486.014970475	4.781415619
39	7891931	487.819493468	1.804522993
39	7902792	488.982399315	1.162905847
39	7911162	489.54526	0.562860685
39	7923251	490.907939549	1.362679549
39	7948232	493.065641917	2.157702368
39	7960231	493.36218337	0.296541453
39	7987170	494.822684561	1.460501191
39	8008202	496.50092245	1.678237889
39	8031772	499.13312003	2.63219758
39	8057624	501.537514676	2.404394646
39	8090169	503.810776012	2.273261336
39	8105539	504.285462222	0.47468621
39	8136358	505.711043473	1.425581251
39	8181238	506.952155406	1.241111933
39	8208020	508.43463414	1.482478734
39	8215922	508.961180576	0.526546436
39	8223130	509.326166153	0.364985577
39	8267308	511.902012208	2.575846055
39	8309081	514.546429344	2.644417136
39	8338404	516.560888851	2.014459507
39	8339820	516.670290987	0.109402136
39	8346155	517.208441581	0.538150594
39	8349330	517.485299668	0.276858087
39	8349752	517.525538347	0.040238679
39	8366047	519.066705753	1.541167406
39	8369303	519.636650034	0.569944281
39	8426690	524.228419008	4.591768974
39	8479073	528.5181535	4.289734492
39	8480443	528.67682266	0.15866916
39	8511453	531.276558462	2.599735802
39	8521582	532.052582011	0.776023549
39	8523203	532.28491798	0.232335969
39	8527162	532.7996038	0.51468582
39	8536335	533.043916243	0.244312443
39	8613857	539.327424691	6.283508448
39	8653059	541.400718541	2.07329385
39	8672822	542.925911212	1.525192671
39	8679776	543.198922103	0.273010891
39	8690366	543.582400805	0.383478702
39	8719493	545.320774365	1.73837356
39	8750182	547.02501767	1.704243305
39	8791446	549.860597938	2.835580268
39	8815694	551.145376802	1.284778864
39	8817970	551.203813059	0.058436257
39	8832286	551.682815602	0.479002543
39	8836233	552.029859504	0.347043902
39	8857283	553.734938785	1.705079281
39	8857591	553.751934222	0.016995437
39	8858170	553.816031765	0.064097543
39	8863360	554.407999522	0.591967757
39	8886795	555.899772947	1.491773425
39	8886825	555.903586371	0.003813424
39	8887238	555.940920884	0.037334513
39	8896374	556.727677368	0.786756484
39	8910298	557.80877706	1.081099692
39	8912573	558.058616621	0.249839561
39	9018806	563.699493057	5.640876436
39	9040849	564.633271214	0.933778157
39	9084855	566.811770065	2.178498851
39	9105167	568.059642069	1.247872004
39	9148088	570.340003194	2.280361125
39	9183707	572.086542484	1.74653929
39	9192795	572.600644756	0.514102272
39	9194658	572.836427619	0.235782863
39	9220034	574.699047942	1.862620323
39	9232734	575.744161147	1.045113205
39	9276582	579.043545246	3.299384099
39	9290478	579.838922535	0.795377289
39	9343465	583.2366682	3.397745665
39	9353443	583.928670924	0.692002724
39	9431420	588.571380265	4.642709341
39	9436530	588.924388891	0.353008626
39	9441033	589.334640965	0.410252074
39	9450471	590.164208709	0.829567744
39	9455538	590.688762402	0.524553693
39	9459599	591.201355919	0.512593517
39	9504617	593.585211525	2.383855606
39	9523412	594.580251314	0.995039789
39	9561533	597.005200869	2.424949555
39	9579297	597.61386309	0.608662221
39	9583836	597.947224103	0.333361013
39	9617768	599.430901056	1.483676953
39	9620449	599.65995097	0.229049914
39	9632499	600.118526019	0.458575049
39	9715816	604.068640747	3.950114728
39	9853917	612.149117697	8.08047695
39	9869211	612.799041003	0.649923306
39	9887191	614.689111379	1.890070376
39	9896058	615.672876616	0.983765237
39	9935355	619.004909972	3.332033356
39	9952566	620.637229413	1.632319441
39	9965453	621.96438605	1.327156637
39	9971335	622.333468258	0.369082208
39	10003577	624.877209096	2.543740838
39	10018206	626.410955878	1.533746782
39	10018409	626.426572584	0.015616706
39	10033917	628.236143042	1.809570458
39	10063692	630.704070356	2.467927314
39	10077637	631.918014911	1.213944555
39	10081850	632.184563249	0.266548338
39	10118858	634.356976688	2.172413439
39	10132364	634.866212153	0.509235465
39	10140469	635.586299761	0.720087608
39	10141352	635.660707063	0.074407302
39	10184787	637.907027698	2.246320635
39	10210607	639.119167674	1.212139976
39	10222627	639.865980891	0.746813217
39	10269258	642.808941701	2.94296081
39	10280182	643.374048933	0.565107232
39	10281299	643.501479308	0.127430375
39	10284619	643.863209565	0.361730257
39	10301880	644.783816427	0.920606862
39	10355068	647.217660489	2.433844062
39	10387874	648.043399031	0.825738542
39	10446016	650.407125188	2.363726157
39	10456560	650.719437565	0.312312377
39	10470043	651.39921461	0.679777045
39	10496696	652.721151212	1.321936602
39	10547484	655.792270029	3.071118817
39	10552851	655.971384863	0.179114834
39	10568176	657.025604385	1.054219522
39	10572326	657.442493489	0.416889104
39	10596670	658.989000689	1.5465072
39	10614154	660.007655429	1.01865474
39	10644945	661.475089923	1.467434494
39	10712681	667.186009902	5.710919979
39	10755126	669.75687739	2.570867488
39	10772928	671.508156672	1.751279282
39	10778540	672.163325509	0.655168837
39	10785352	672.957142322	0.793816813
39	10830047	676.304885799	3.347743477
39	10876790	679.526887352	3.222001553
39	10887810	680.367266501	0.840379149
39	10889091	680.547617553	0.180351052
39	10988175	686.591204307	6.043586754
39	11007388	687.070577939	0.479373632
39	11014919	687.58883961	0.518261671
39	11022986	688.177697767	0.588858157
39	11039306	689.071145943	0.893448176
39	11048672	690.04953515	0.978389207
39	11053485	690.381655521	0.332120371
39	11054482	690.531734656	0.150079135
39	11079430	692.763196055	2.231461399
39	11091581	693.802772118	1.039576063
39	11113133	695.957605759	2.154833641
39	11121899	697.095870634	1.138264875
39	11123040	697.254449682	0.158579048
39	11146798	699.034369467	1.779919785
39	11167121	700.117944781	1.083575314
39	11179916	700.98168999	0.863745209
39	11283269	707.249793452	6.268103462
39	11302826	708.328002764	1.078209312
39	11332360	709.373613295	1.045610531
39	11383079	711.320002687	1.946389392
39	11390751	711.897690605	0.577687918
39	11393240	712.128803654	0.231113049
39	11420984	713.527141867	1.398338213
39	11435239	714.500156973	0.973015106
39	11451097	715.886820834	1.386663861
39	11463513	716.57876866	0.691947826
39	11485746	718.08773962	1.50897096
39	11486652	718.187335852	0.099596232
39	11495620	718.600671163	0.413335311
39	11501445	718.917378128	0.316706965
39	11508617	719.449965493	0.532587365
39	11558589	722.353607404	2.903641911
39	11568769	723.183518309	0.829910905
39	11575933	723.329759719	0.14624141
39	11593886	724.548336331	1.218576612
39	11595776	724.709259153	0.160922822
39	11597366	724.882257419	0.172998266
39	11599196	725.088623638	0.206366219
39	11629919	727.226734948	2.13811131
39	11644617	727.940775993	0.714041045
39	11651668	728.423143463	0.48236747
39	11653598	728.649161961	0.226018498
39	11665129	729.655238695	1.006076734
39	11680599	731.335447083	1.680208388
39	11687035	732.000435018	0.664987935
39	11691186	732.58556896	0.585133942
39	11693243	732.831835385	0.246266425
39	11701365	733.672483624	0.840648239
39	11722374	734.467201998	0.794718374
39	11743473	736.074887839	1.607685841
39	11766105	738.276734397	2.201846558
39	11767227	738.431878934	0.155144537
39	11768816	738.580463341	0.148584407
39	11783544	740.391544547	1.811081206
39	11788888	741.215731502	0.824186955
39	11807801	742.191813751	0.976082249
39	11831100	744.24422299	2.052409239
39	11845856	745.066955828	0.822732838
39	11860094	746.179470686	1.112514858
39	11886248	748.04361703	1.864146344
39	11896351	748.984480911	0.940863881
39	11910746	749.475575833	0.491094922
39	11948619	752.119735059	2.644159226
39	11953190	752.453133591	0.333398532
39	11954339	752.473654022	0.020520431
39	11972766	753.751267223	1.277613201
39	11984422	754.461516261	0.710249038
39	12031989	758.561949297	4.100433036
39	12034220	758.753443964	0.191494667
39	12112283	763.369054657	4.615610693
39	12148164	765.744884041	2.375829384
39	12150247	765.931394729	0.186510688
39	12169689	766.943698181	1.012303452
39	12174280	767.205518732	0.261820551
39	12201204	768.39099999	1.185481258
39	12229953	769.796091718	1.405091728
39	12263452	770.738565722	0.942474004
39	12279456	771.87111753	1.132551808
39	12298455	773.068266465	1.197148935
39	12411434	780.130626342	7.062359877
39	12434791	782.022079228	1.891452886
39	12444865	783.073780575	1.051701347
39	12465348	784.112960469	1.039179894
39	12481638	784.926079396	0.813118927
39	12590538	789.479430748	4.553351352
39	12618765	790.726847493	1.247416745
39	12626009	791.168004968	0.441157475
39	12650463	792.613483305	1.445478337
39	12685501	794.146368959	1.532885654
39	12710094	795.462186098	1.315817139
39	12719965	796.173835171	0.711649073
39	12721869	796.278166394	0.104331223
39	12741147	797.602523826	1.324357432
39	12828799	803.770220674	6.167696848
39	12876319	807.125337896	3.355117222
39	12882282	807.470405971	0.345068075
39	12884588	807.705414519	0.235008548
39	12941445	810.275481681	2.570067162
39	12988504	812.901957094	2.626475413
39	13021782	815.200093939	2.298136845
39	13040273	815.84535993	0.645265991
39	13042463	815.959084355	0.113724425
39	13047740	816.37096605	0.411881695
39	13051896	816.639444562	0.268478512
39	13057885	816.833205065	0.193760503
39	13119548	819.793327785	2.96012272
39	13147170	821.957026365	2.16369858
39	13160051	822.769547374	0.812521009
39	13241232	827.584319606	4.814772232
39	13275571	829.17274183	1.588422224
39	13303005	830.276587114	1.103845284
39	13357213	833.045822392	2.769235278
39	13372506	833.772232102	0.72640971
39	13379921	834.229849198	0.457617096
39	13387502	834.929038601	0.699189403
39	13428266	837.722937523	2.793898922
39	13512251	842.573209043	4.85027152
39	13598041	845.617254685	3.044045642
39	13631339	847.045037213	1.427782528
39	13634605	847.349410152	0.304372939
39	13638774	847.76659858	0.417188428
39	13665264	849.898428747	2.131830167
39	13783735	856.574021121	6.675592374
39	13785686	856.791847142	0.217826021
39	13801856	857.819122797	1.027275655
39	13808303	858.4557242	0.636601403
39	13835152	860.488039954	2.032315754
39	13859525	862.237327616	1.749287662
39	13888239	864.052971878	1.815644262
39	13934803	867.034152659	2.981180781
39	13964928	868.798861724	1.764709065
39	13984088	870.333274233	1.534412509
39	14000756	871.319307898	0.986033665
39	14002694	871.575108158	0.25580026
39	14014765	871.955845946	0.380737788
39	14050531	873.441072725	1.485226779
39	14074357	874.829597543	1.388524818
39	14145498	881.607271224	6.777673681
39	14149309	881.979067292	0.371796068
39	14163995	883.484918076	1.505850784
39	14172279	884.452457491	0.967539415
39	14173168	884.567860594	0.115403103
39	14185747	886.220421445	1.652560851
39	14194059	887.361841127	1.141419682
39	14214451	888.53774136	1.175900233
39	14225702	889.481679196	0.943937836
39	14236094	890.219696421	0.738017225
39	14245308	890.523030206	0.303333785
39	14249666	890.96410784	0.441077634
39	14270709	892.69612519	1.73201735
39	14292348	894.734404087	2.038278897
39	14319539	897.710379284	2.975975197
39	14360411	899.65247578	1.942096496
39	14390896	901.297845695	1.645369915
39	14476947	905.857480883	4.559635188
39	14499341	907.324650576	1.467169693
39	14515168	908.02249938	0.697848804
39	14566935	911.483110613	3.460611233
39	14577077	911.789498295	0.306387682
39	14590718	912.586303032	0.796804737
39	14612271	914.245442663	1.659139631
39	14633896	915.812872854	1.567430191
39	14646630	916.424821802	0.611948948
39	14655320	916.844740925	0.419919123
39	14674175	917.593236325	0.7484954
39	14674327	917.606514984	0.013278659
39	14682956	918.297719891	0.691204907
39	14717836	920.094155461	1.79643557
39	14745600	921.297158949	1.203003488
39	14755376	922.083489228	0.786330279
39	14784097	924.189260718	2.10577149
39	14803909	925.0398228	0.850562082
39	14851841	927.534879356	2.495056556
39	14867206	928.457628813	0.922749457
39	14923310	931.539233507	3.081604694
39	14923844	931.582723294	0.043489787
39	14936732	932.221334088	0.638610794
39	14941221	932.576420159	0.355086071
39	14952039	933.123586665	0.547166506
39	14990316	935.958680824	2.835094159
39	15039336	938.188887131	2.230206307
39	15077094	939.547236402	1.358349271
39	15120261	941.472639587	1.925403185
39	15147098	943.304695369	1.832055782
39	15148208	943.381232005	0.076536636
39	15160479	943.670343712	0.289111707
39	15210379	945.793847072	2.12350336
39	15226520	946.627242154	0.833395082
39	15251208	948.130133049	1.502890895
39	15265094	948.808747337	0.678614288
39	15300091	950.254752373	1.446005036
39	15322672	950.906005697	0.651253324
39	15336892	951.279393309	0.373387612
39	15355513	952.1994589	0.920065591
39	15381200	953.463204296	1.263745396
39	15405549	954.735149784	1.271945488
39	15421737	955.540744924	0.80559514
39	15485257	959.355520344	3.81477542
39	15485783	959.409007405	0.053487061
39	15492898	960.03993245	0.630925045
39	15524793	961.279694221	1.239761771
39	15528291	961.456840457	0.177146236
39	15534985	962.007554488	0.550714031
39	15559883	963.714933182	1.707378694
39	15584075	965.567574904	1.852641722
39	15586344	965.734673141	0.167098237
39	15591448	966.136197701	0.40152456
39	15612009	966.878076062	0.741878361
39	15615798	967.06288792	0.184811858
39	15621201	967.422122178	0.359234258
39	15669495	970.410038053	2.987915875
39	15673987	970.597380485	0.187342432
39	15677554	970.812453307	0.215072822
39	15694364	972.299607167	1.48715386
39	15704353	973.026474598	0.726867431
39	15811047	977.867292921	4.840818323
39	15852482	979.42337233	1.556079409
39	15928480	982.310528595	2.887156265
39	16042690	987.506283214	5.195754619
39	16054380	988.404565275	0.898282061
39	16068166	989.125465755	0.72090048
39	16093915	990.511840317	1.386374562
39	16122556	992.555923026	2.044082709
39	16125029	992.723128905	0.167205879
39	16271764	1000.239887223	7.516758318
39	16280247	1000.921022145	0.681134922
39	16282441	1001.168777659	0.247755514
39	16285788	1001.57484051	0.406062851
39	16291394	1002.061840003	0.486999493
39	16333474	1005.094216392	3.032376389
39	16354958	1005.910466914	0.816250522
39	16436941	1010.801581073	4.891114159
39	16597914	1021.059734484	10.258153411
39	16599604	1021.297692291	0.237957807
39	16602538	1021.4570466	0.159354309
39	16610413	1021.690639664	0.233593064
39	16668539	1025.311500256	3.620860592
39	16694688	1026.906643313	1.595143057
39	16721828	1028.227241201	1.320597888
39	16758358	1030.466020654	2.238779453
39	16780421	1032.085460901	1.619440247
39	16806909	1034.257907018	2.172446117
39	16816346	1034.90976757	0.651860552
39	16818073	1034.946491684	0.036724114
39	16921410	1040.158894638	5.212402954
39	16924077	1040.264068907	0.105174269
39	16945152	1041.299923598	1.035854691
39	16976218	1043.315849511	2.015925913
39	16978554	1043.42898679	0.113137279
39	16982931	1043.632969419	0.203982629
39	16997792	1044.527723597	0.894754178
39	17035211	1047.52708638	2.999362783
39	17040259	1047.933850422	0.406764042
39	17064088	1049.516076439	1.582226017
39	17097148	1051.041463312	1.525386873
39	17127953	1052.315036203	1.273572891
39	17241276	1059.263421468	6.948385265
39	17271706	1061.703880252	2.440458784
39	17282444	1062.281925468	0.578045216
39	17294673	1062.622120806	0.340195338
39	17303143	1063.048067784	0.425946978
39	17350262	1065.775086507	2.727018723
39	17363485	1066.769035094	0.993948587
39	17372248	1067.274868353	0.505833259
39	17372491	1067.293369223	0.01850087
39	17384238	1068.493990547	1.200621324
39	17388048	1068.844005198	0.350014651
39	17469055	1074.620198644	5.776193446
39	17471049	1074.944593722	0.324395078
39	17498106	1076.607470922	1.6628772
39	17508154	1077.544073695	0.936602773
39	17549272	1081.280139923	3.736066228
39	17554030	1081.811529617	0.531389694
39	17556360	1082.039174353	0.227644736
39	17587567	1085.785410534	3.746236181
39	17598152	1086.643988382	0.858577848
39	17612438	1087.559874158	0.915885776
39	17647488	1089.687645763	2.127771605
39	17691634	1092.393696879	2.706051116
39	17702552	1093.181290979	0.7875941
39	17719938	1094.180846375	0.999555396
39	17731439	1095.314515102	1.133668727
39	17737870	1095.934344926	0.619829824
39	17740174	1096.168836479	0.234491553
39	17740615	1096.225294334	0.056457855
39	17746357	1096.750973942	0.525679608
39	17787472	1099.383810419	2.632836477
39	17795292	1099.509264349	0.12545393
39	17809814	1099.93902115	0.429756801
39	17828092	1101.232165331	1.293144181
39	17873028	1103.372131306	2.139965975
39	17902163	1105.309153683	1.937022377
39	17946807	1108.858432404	3.549278721
39	17948794	1109.290749199	0.432316795
39	18004094	1112.540459608	3.249710409
39	18037101	1114.315391499	1.774931891
39	18055885	1116.295210396	1.979818897
39	18121901	1119.529264749	3.234054353
39	18131507	1120.234134316	0.704869567
39	18159410	1122.217684567	1.983550251
39	18167256	1123.093729048	0.876044481
39	18174203	1123.718851184	0.625122136
39	18191675	1125.049181419	1.330330235
39	18249870	1129.969039573	4.919858154
39	18309804	1133.663297792	3.694258219
39	18365505	1137.173439075	3.510141283
39	18392858	1138.997996702	1.824557627
39	18406401	1139.68371755	0.685720848
39	18453659	1142.605596771	2.921879221
39	18491603	1144.524808577	1.919211806
39	18492640	1144.621545557	0.09673698
39	18496906	1144.998883792	0.377338235
39	18500061	1145.379267065	0.380383273
39	18512176	1146.302225645	0.92295858
39	18523079	1146.933435423	0.631209778
40	2943285	151.293688625	2805.392170487
40	2966773	152.959913406	1116.569618273
40	3017741	156.79852947	309.708969307
40	3019924	157.019838936	665.685575583
40	3020385	157.104197936	1274.687584873
40	3086516	162.718724577	619.486794155
40	3093504	163.474070774	282.295892816
40	3109841	165.146241638	1112.697359387
40	3157094	168.402790772	605.350653192
40	3157218	168.43027205	88.336503094
40	3219001	172.881058437	3148.546469628
40	3220451	173.017105094	1248.782294329
40	3224028	173.286986438	521.239900914
40	3236433	174.603617637	256.637302961