version 2
run PastryDHT-10-20211207-00:36:28-4724
attr Lifetime 5000s
attr configname PastryDHT
attr datetime 20211207-00:36:28
attr experiment PastryDHT
attr inifile configs.ini
attr iterationvars $Lifetime=5000s
attr iterationvars2 "$Lifetime=5000s, $repetition=0"
attr measurement $Lifetime=5000s
attr network oversim.underlay.simpleunderlay.SimpleUnderlayNetwork
attr processid 4724
attr repetition 0
attr replication #0
attr resultdir results
attr runnumber 10
attr seedset 10

vector 61  SimpleUnderlayNetwork.globalObserver.globalStatistics  "GlobalNodeList: Number of nodes"  ETV
vector 62  SimpleUnderlayNetwork.globalObserver.globalStatistics  "GlobalDhtTestMap: Number of stored DHT entries"  ETV
vector 63  SimpleUnderlayNetwork.globalObserver.globalStatistics  "LifetimeChurn: Session Time"  ETV
vector 64  SimpleUnderlayNetwork.globalObserver.globalStatistics  "LifetimeChurn: Time between creates"  ETV
vector 65  SimpleUnderlayNetwork.globalObserver.globalStatistics  "LifetimeChurn: Time between deletes"  ETV
61	2183105	150	500
61	2400000	200	502
61	2578107	250	502
61	2777916	300	500
61	2982687	350	500
61	3296132	400	497
61	3589048	450	496
61	3852629	500	495
61	4103223	550	499
61	4273046	600	499
61	4547468	650	499
61	4849443	700	500
61	5121025	750	503
61	5447390	800	504
61	5699209	850	506
61	5993820	900	506
61	6193133	950	503
61	6397808	1000	501
61	6623783	1050	505
61	6916678	1100	512
62	2183106	150	781
62	2221793	160	892
62	2269886	170	965
62	2313970	180	1038
62	2349571	190	1100
62	2400001	200	1188
62	2426174	210	1288
62	2470791	220	1380
62	2502422	230	1457
62	2533732	240	1540
62	2578108	250	1604
62	2595885	260	1678
62	2637463	270	1788
62	2682296	280	1876
62	2729614	290	1956
62	2777917	300	2034
62	2830875	310	2105
62	2887311	320	2185
62	2915104	330	2278
62	2943848	340	2369
62	2982688	350	2444
62	3038888	360	2509
62	3092674	370	2509
62	3140098	380	2502
62	3203631	390	2484
62	3296133	400	2471
62	3352674	410	2475
62	3408261	420	2495
62	3467474	430	2498
62	3545323	440	2498
62	3589049	450	2500
62	3618262	460	2460
62	3654740	470	2468
62	3718455	480	2485
62	3772157	490	2496
62	3852630	500	2479
62	3920476	510	2467
62	3965713	520	2459
62	4020230	530	2464
62	4053764	540	2480
62	4103224	550	2492
62	4148384	560	2498
62	4172440	570	2464
62	4222727	580	2458
62	4248002	590	2464
62	4273047	600	2470
62	4323236	610	2486
62	4370360	620	2483
62	4441698	630	2476
62	4490053	640	2458
62	4547469	650	2463
62	4617872	660	2466
62	4677240	670	2469
62	4731969	680	2472
62	4777200	690	2471
62	4849444	700	2446
62	4889989	710	2458
62	4923389	720	2466
62	4961647	730	2468
62	5053753	740	2478
62	5121026	750	2466
62	5186770	760	2469
62	5250632	770	2476
62	5304117	780	2471
62	5371740	790	2472
62	5447391	800	2490
62	5497187	810	2491
62	5561036	820	2483
62	5608785	830	2487
62	5648481	840	2472
62	5699210	850	2470
62	5762726	860	2480
62	5825408	870	2487
62	5874015	880	2483
62	5917985	890	2488
62	5993821	900	2488
62	6025799	910	2479
62	6057354	920	2486
62	6104007	930	2470
62	6152086	940	2494
62	6193134	950	2490
62	6218837	960	2486
62	6262976	970	2494
62	6320193	980	2498
62	6368139	990	2490
62	6397809	1000	2500
62	6457618	1010	2486
62	6507859	1020	2491
62	6548585	1030	2515
62	6587590	1040	2496
62	6623784	1050	2492
62	6693920	1060	2496
62	6789416	1070	2488
62	6846864	1080	2493
62	6888569	1090	2518
62	6916679	1100	2503
62	6951606	1110	2489
62	6983756	1120	2494
62	7062216	1130	2502
62	7148281	1140	2468
63	2203258	157.396567811	5056.693115926
63	2206911	158.490175785	3411.222516948
63	2279719	175.028962921	1369.776827628
63	2298580	177.942778261	997.871269938
63	2315396	180.180828495	10224.908588246
63	2350599	190.530087347	3932.297689613
63	2382682	198.352074177	1379.030016287
63	2429886	211.067662262	1489.817007502
63	2490364	227.690637699	2718.428766411
63	2533527	239.931797462	2666.455588468
63	2551202	243.557055953	4122.631508758
63	2598366	261.16398748	7155.723980655
63	2652188	275.02272821	9963.906411578
63	2697521	285.061882973	2713.301607105
63	2742340	293.023311981	1347.011919687
63	2816560	308.064195629	1184.449428253
63	2848624	313.400792635	7226.702712522
63	2946459	341.351308662	1179.581736875
63	2977556	348.436674219	6991.537386038
63	3069811	366.994940933	7175.433999072
63	3142301	380.452886063	4338.735768688
63	3179116	386.199891567	6608.635409848
63	3195179	388.70677228	12975.184321271
63	3312086	402.736984752	3055.726844963
63	3380787	416.255858248	3820.356459159
63	3416548	421.941501748	1718.427341933
63	3417903	422.231852746	11684.829877235
63	3511110	436.386758023	21.164296711
63	3625848	463.465141641	3862.548744293
63	3677004	475.756383533	12737.720935415
63	3683909	476.869493781	591.126266442
63	3780604	492.087954866	9198.994781532
63	3790827	494.000139116	4413.324703347
63	3842250	498.352345277	1195.899089329
63	3918822	509.682499401	602.410424745
63	3981218	524.077937126	4100.908525231
63	3988818	526.203032688	1410.912363771
63	4044757	537.270942049	4315.366611914
63	4075233	544.538626734	5024.395728172
63	4090457	546.860374611	1123.802210992
63	4118157	552.455706297	10003.705137047
63	4170529	569.424094156	123.680398084
63	4194220	574.471070061	5079.460238864
63	4299969	607.12363783	5712.029890219
63	4353530	616.769822948	178.611911579
63	4356128	617.26256695	5350.464346161
63	4441648	629.987955446	5141.910369174
63	4483643	638.435331326	7712.089835672
63	4505354	641.915478885	1202.834949166
63	4538725	648.311566606	5159.230306891
63	4577683	655.52382585	4456.85407581
63	4582289	656.445931546	205.771682284
63	4604467	658.434450337	5384.799316879
63	4641995	665.014362941	3097.000659126
63	4679331	670.618951991	4.935774463
63	4773737	689.208086576	475.885546608
63	4787979	693.029940291	17472.072670817
63	4836293	699.057347315	4746.687612479
63	4927523	720.77568361	2992.115586941
63	4957992	728.937370967	2209.466362947
63	5005211	734.757649899	10704.680191101
63	5010777	735.974474167	4570.413654781
63	5043348	738.68019091	1605.344098055
63	5064321	742.920063819	2828.0017196
63	5098942	747.527657237	1526.611577847
63	5103812	748.635943665	6259.454530021
63	5142915	753.735684461	490.602708738
63	5170355	758.135404012	674.812027184
63	5171156	758.289792574	4350.112919488
63	5268579	773.880023879	7418.689823934
63	5296740	778.654778294	588.189466256
63	5367787	789.421237412	4021.489152622
63	5368230	789.551056757	6261.438620776
63	5498499	810.37200914	18847.030760184
63	5503631	811.464815754	4254.109460008
63	5545531	818.553027264	24436.800382574
63	5595074	825.990840274	599.805476746
63	5654782	842.140549891	10224.839305971
63	5690899	848.352896924	6104.523623751
63	5716891	853.975340797	1043.958052206
63	5758937	859.485831666	8747.031189311
63	5794057	864.817890388	462.439812083
63	5894015	886.30466297	590.496559842
63	5919526	890.350934742	13219.051380792
63	5925106	891.880272384	309.644095153
63	5972823	896.606242064	3080.985063025
63	6072088	923.838968219	511.672686136
63	6107090	931.362907481	968.179419025
63	6149542	939.472053728	4392.196863538
63	6241601	967.618416586	25249.920724779
63	6263169	970.051716457	2197.033735156
63	6304028	975.779761685	3178.105126549
63	6398307	1000.111259524	5586.951152457
63	6435778	1006.889171697	2817.78093332
63	6480901	1015.549823411	6912.005924324
63	6524380	1024.97634781	950.570202142
63	6553956	1032.176981038	3672.752458813
63	6603817	1045.386938392	2644.480632928
63	6644554	1052.136627271	1213.893199893
63	6687776	1058.325860031	5606.339276709
63	6713667	1062.606445647	6157.239756653
63	6714905	1062.989436599	995.083074983
63	6720480	1064.635624321	9043.339137638
63	6765515	1067.265448047	6259.978395473
63	6797903	1072.023321836	2647.712607791
63	6799179	1072.181329906	3663.364742835
63	6839649	1078.450811972	877.974233499
63	6924951	1103.972863954	1836.364681189
63	6962316	1116.504045434	2735.976155029
63	6980152	1118.842749984	8053.629159027
63	6998519	1121.533516246	3903.023049969
63	7018143	1123.730338731	1593.832019417
63	7022202	1124.37330985	7223.533663575
63	7062313	1130.092381732	270.149498336
63	7063559	1130.292469952	154.002990723
63	7067944	1131.324883638	771.716256446
63	7124438	1135.473821583	7865.985821084
63	7141512	1138.25466116	751.456422336
63	7164316	1142.460906839	2531.102796265
64	2203258	157.396567811	47.471944411
64	2206911	158.490175785	1.093607974
64	2279719	175.028962921	16.538787136
64	2298580	177.942778261	2.91381534
64	2315396	180.180828495	2.238050234
64	2350599	190.530087347	10.349258852
64	2382682	198.352074177	7.82198683
64	2429886	211.067662262	12.715588085
64	2490364	227.690637699	16.622975437
64	2533527	239.931797462	12.241159763
64	2551202	243.557055953	3.625258491
64	2598366	261.16398748	17.606931527
64	2652188	275.02272821	13.85874073
64	2697521	285.061882973	10.039154763
64	2742340	293.023311981	7.961429008
64	2816560	308.064195629	15.040883648
64	2848624	313.400792635	5.336597006
64	2946459	341.351308662	27.950516027
64	2977556	348.436674219	7.085365557
64	3069811	366.994940933	18.558266714
64	3142301	380.452886063	13.45794513
64	3179116	386.199891567	5.747005504
64	3195179	388.70677228	2.506880713
64	3312086	402.736984752	14.030212472
64	3380787	416.255858248	13.518873496
64	3416548	421.941501748	5.6856435
64	3417903	422.231852746	0.290350998
64	3511110	436.386758023	14.154905277
64	3625848	463.465141641	27.078383618
64	3677004	475.756383533	12.291241892
64	3683909	476.869493781	1.113110248
64	3780604	492.087954866	15.218461085
64	3790827	494.000139116	1.91218425
64	3842250	498.352345277	4.352206161
64	3918822	509.682499401	11.330154124
64	3981218	524.077937126	14.395437725
64	3988818	526.203032688	2.125095562
64	4044757	537.270942049	11.067909361
64	4075233	544.538626734	7.267684685
64	4090457	546.860374611	2.321747877
64	4118157	552.455706297	5.595331686
64	4170529	569.424094156	16.968387859
64	4194220	574.471070061	5.046975905
64	4299969	607.12363783	32.652567769
64	4353530	616.769822948	9.646185118
64	4356128	617.26256695	0.492744002
64	4441648	629.987955446	12.725388496
64	4483643	638.435331326	8.44737588
64	4505354	641.915478885	3.480147559
64	4538725	648.311566606	6.396087721
64	4577683	655.52382585	7.212259244
64	4582289	656.445931546	0.922105696
64	4604467	658.434450337	1.988518791
64	4641995	665.014362941	6.579912604
64	4679331	670.618951991	5.60458905
64	4773737	689.208086576	18.589134585
64	4787979	693.029940291	3.821853715
64	4836293	699.057347315	6.027407024
64	4927523	720.77568361	21.718336295
64	4957992	728.937370967	8.161687357
64	5005211	734.757649899	5.820278932
64	5010777	735.974474167	1.216824268
64	5043348	738.68019091	2.705716743
64	5064321	742.920063819	4.239872909
64	5098942	747.527657237	4.607593418
64	5103812	748.635943665	1.108286428
64	5142915	753.735684461	5.099740796
64	5170355	758.135404012	4.399719551
64	5171156	758.289792574	0.154388562
64	5268579	773.880023879	15.590231305
64	5296740	778.654778294	4.774754415
64	5367787	789.421237412	10.766459118
64	5368230	789.551056757	0.129819345
64	5498499	810.37200914	20.820952383
64	5503631	811.464815754	1.092806614
64	5545531	818.553027264	7.08821151
64	5595074	825.990840274	7.43781301
64	5654782	842.140549891	16.149709617
64	5690899	848.352896924	6.212347033
64	5716891	853.975340797	5.622443873
64	5758937	859.485831666	5.510490869
64	5794057	864.817890388	5.332058722
64	5894015	886.30466297	21.486772582
64	5919526	890.350934742	4.046271772
64	5925106	891.880272384	1.529337642
64	5972823	896.606242064	4.72596968
64	6072088	923.838968219	27.232726155
64	6107090	931.362907481	7.523939262
64	6149542	939.472053728	8.109146247
64	6241601	967.618416586	28.146362858
64	6263169	970.051716457	2.433299871
64	6304028	975.779761685	5.728045228
64	6398307	1000.111259524	24.331497839
64	6435778	1006.889171697	6.777912173
64	6480901	1015.549823411	8.660651714
64	6524380	1024.97634781	9.426524399
64	6553956	1032.176981038	7.200633228
64	6603817	1045.386938392	13.209957354
64	6644554	1052.136627271	6.749688879
64	6687776	1058.325860031	6.18923276
64	6713667	1062.606445647	4.280585616
64	6714905	1062.989436599	0.382990952
64	6720480	1064.635624321	1.646187722
64	6765515	1067.265448047	2.629823726
64	6797903	1072.023321836	4.757873789
64	6799179	1072.181329906	0.15800807
64	6839649	1078.450811972	6.269482066
64	6924951	1103.972863954	25.522051982
64	6962316	1116.504045434	12.53118148
64	6980152	1118.842749984	2.33870455
64	6998519	1121.533516246	2.690766262
64	7018143	1123.730338731	2.196822485
64	7022202	1124.37330985	0.642971119
64	7062313	1130.092381732	5.719071882
64	7063559	1130.292469952	0.20008822
64	7067944	1131.324883638	1.032413686
64	7124438	1135.473821583	4.148937945
64	7141512	1138.25466116	2.780839577
64	7164316	1142.460906839	4.206245679
65	2232512	160.433268736	22.161171282
65	2253669	163.679744845	3.246476109
65	2301360	178.890374229	15.210629384
65	2329015	182.407756048	3.517381819
65	2415115	204.274346236	21.866590188
65	2454045	214.711701472	10.437355236
65	2504850	230.1318734	15.420171928
65	2509644	230.836030311	0.704156911
65	2555659	245.280582463	14.444552152
65	2579629	250.555793023	5.27521056
65	2596900	260.396480943	9.84068792
65	2624078	265.465253625	5.068772682
65	2645525	272.541460284	7.076206659
65	2691969	283.009873865	10.468413581
65	2805060	305.885863453	22.875989588
65	2838973	311.524212455	5.638349002
65	2901795	325.510389859	13.986177404
65	2903691	326.414597428	0.904207569
65	2944671	340.631406652	14.216809224
65	2986126	350.091419839	9.460013187
65	3010380	354.492736103	4.401316264
65	3020415	356.437803257	1.945067154
65	3066422	366.07250957	9.634706313
65	3092611	369.986949206	3.914439636
65	3153826	382.985712147	12.998762941
65	3163631	385.14146914	2.155756993
65	3188905	387.564737635	2.423268495
65	3225432	391.271964378	3.707226743
65	3257758	394.826702246	3.554737868
65	3382803	416.719348421	21.892646175
65	3386327	417.359846138	0.640497717
65	3558749	442.551054734	25.191208596
65	3574863	446.138782994	3.58772826
65	3610749	456.545753757	10.406970763
65	3615942	458.622681948	2.076928191
65	3626718	463.722506997	5.099825049
65	3647892	468.071310615	4.348803618
65	3657621	470.641934918	2.570624303
65	3844318	498.709790277	28.067855359
65	3991505	526.885725361	28.175935084
65	4153804	562.828722217	35.942996856
65	4229439	582.89929338	20.070571163
65	4234173	584.850439035	1.951145655
65	4246206	589.451239385	4.60080035
65	4249751	590.668848571	1.217609186
65	4274613	600.953752296	10.284903725
65	4297677	606.791507527	5.837755231
65	4434400	628.081052181	21.289544654
65	4441356	629.802330898	1.721278717
65	4460454	633.322103061	3.519772163
65	4476216	636.354824607	3.032721546
65	4522763	644.100827906	7.746003299
65	4582764	656.478196263	12.377368357
65	4624223	661.104990031	4.626793768
65	4679338	670.618951991	9.51396196
65	4722882	677.492167535	6.873215544
65	4725194	678.10449224	0.612324705
65	4769531	688.383114714	10.278622474
65	4818867	695.777687429	7.394572715
65	4862105	701.932703824	6.155016395
65	4957441	728.839759425	26.907055601
65	4970440	730.23651323	1.396753805
65	5063726	742.694433988	12.457920758
65	5069712	744.515090376	1.820656388
65	5153216	756.032338326	11.51724795
65	5201118	762.084804798	6.052466472
65	5292905	777.921413307	15.836608509
65	5305179	780.381734527	2.46032122
65	5359887	787.819133506	7.437398979
65	5394772	792.468584317	4.649450811
65	5516806	812.399686061	19.931101744
65	5597162	826.845322664	14.445636603
65	5685793	847.21761383	20.372291166
65	5712829	852.649761842	5.432148012
65	5719192	854.305261814	1.655499972
65	5738271	856.314464273	2.009202459
65	5746742	857.781929432	1.467465159
65	5882831	882.185189195	24.403259763
65	5888748	884.293237747	2.108048552
65	5897080	887.063716345	2.770478598
65	5923647	891.521031904	4.457315559
65	5947700	893.561298391	2.040266487
65	5996568	900.635607857	7.074309466
65	5999209	901.710046929	1.074439072
65	6030718	911.796301034	10.086254105
65	6174723	943.768659215	31.972358181
65	6177298	944.620550396	0.851891181
65	6182695	946.876823087	2.256272691
65	6186335	948.180279584	1.303456497
65	6335931	983.872987012	35.692707428
65	6473154	1013.665345799	29.792358787
65	6474546	1013.842600008	0.177254209
65	6651915	1052.995760223	39.153160215
65	6863595	1082.044444089	29.048683866
65	6909207	1097.092924146	15.048480057
65	6917008	1100.139554129	3.046629983
65	6917997	1100.550832968	0.411278839
65	6951533	1109.964484733	9.413651765
65	7064940	1130.447615626	20.483130893
65	7144252	1138.815821583	8.368205957
65	7144756	1139.011013642	0.195192059
