version 2
run ChordDht-4-20211202-14:54:23-10332
attr Lifetime 500s
attr configname ChordDht
attr datetime 20211202-14:54:23
attr experiment ChordDht
attr inifile configs.ini
attr iterationvars $Lifetime=500s
attr iterationvars2 "$Lifetime=500s, $repetition=0"
attr measurement $Lifetime=500s
attr network oversim.underlay.simpleunderlay.SimpleUnderlayNetwork
attr processid 10332
attr repetition 0
attr replication #0
attr resultdir results
attr runnumber 4
attr seedset 4

vector 25  SimpleUnderlayNetwork.globalObserver.globalStatistics  "GlobalNodeList: Number of nodes"  ETV
vector 26  SimpleUnderlayNetwork.globalObserver.globalStatistics  "GlobalDhtTestMap: Number of stored DHT entries"  ETV
vector 27  SimpleUnderlayNetwork.globalObserver.globalStatistics  "LifetimeChurn: Time between deletes"  ETV
vector 28  SimpleUnderlayNetwork.globalObserver.globalStatistics  "LifetimeChurn: Session Time"  ETV
vector 29  SimpleUnderlayNetwork.globalObserver.globalStatistics  "LifetimeChurn: Time between creates"  ETV
25	479908	150	527
25	668968	200	522
25	831694	250	519
25	1033871	300	505
25	1194618	350	532
25	1388241	400	523
25	1562517	450	511
25	1725499	500	517
25	1904337	550	508
25	2052665	600	494
25	2223956	650	490
25	2366781	700	496
25	2532999	750	505
25	2695275	800	505
25	2863231	850	508
25	3033198	900	506
25	3193606	950	513
25	3365237	1000	501
25	3532832	1050	508
25	3712512	1100	525
26	479909	150	720
26	525752	160	823
26	572175	170	909
26	606278	180	963
26	639245	190	1030
26	668969	200	1105
26	702059	210	1203
26	732679	220	1306
26	761902	230	1380
26	791446	240	1449
26	831695	250	1521
26	872007	260	1574
26	917985	270	1695
26	958593	280	1785
26	1001095	290	1844
26	1033872	300	1922
26	1064656	310	1972
26	1097011	320	2057
26	1132446	330	2155
26	1161151	340	2239
26	1194619	350	2326
26	1223595	360	2368
26	1266198	370	2370
26	1306029	380	2368
26	1349089	390	2365
26	1388242	400	2362
26	1430385	410	2383
26	1463807	420	2390
26	1495523	430	2402
26	1528386	440	2399
26	1562518	450	2391
26	1593930	460	2376
26	1620781	470	2378
26	1649003	480	2400
26	1684454	490	2415
26	1725500	500	2413
26	1763579	510	2386
26	1802310	520	2375
26	1839247	530	2384
26	1874886	540	2389
26	1904338	550	2396
26	1934833	560	2397
26	1969892	570	2376
26	2000100	580	2361
26	2027303	590	2375
26	2052666	600	2364
26	2088857	610	2388
26	2122882	620	2376
26	2156334	630	2352
26	2190042	640	2359
26	2223957	650	2338
26	2252675	660	2354
26	2280393	670	2349
26	2307235	680	2348
26	2337396	690	2334
26	2366782	700	2319
26	2396507	710	2304
26	2427722	720	2320
26	2461066	730	2308
26	2497758	740	2308
26	2533000	750	2305
26	2565810	760	2304
26	2599883	770	2289
26	2637174	780	2279
26	2664112	790	2267
26	2695276	800	2271
26	2728572	810	2284
26	2765377	820	2272
26	2795117	830	2274
26	2827907	840	2262
26	2863232	850	2248
26	2900491	860	2272
26	2934644	870	2263
26	2967841	880	2266
26	2999695	890	2291
26	3033199	900	2286
26	3066782	910	2281
26	3096798	920	2280
26	3130390	930	2301
26	3163242	940	2289
26	3193607	950	2298
26	3225549	960	2296
26	3259371	970	2295
26	3296537	980	2293
26	3331719	990	2299
26	3365238	1000	2313
26	3397844	1010	2307
26	3433672	1020	2305
26	3467013	1030	2307
26	3501283	1040	2306
26	3532833	1050	2297
26	3569582	1060	2308
26	3605636	1070	2314
26	3636833	1080	2323
26	3674550	1090	2322
26	3712513	1100	2319
26	3750138	1110	2313
26	3789358	1120	2321
26	3824668	1130	2316
26	3857871	1140	2318
27	480006	150.029954853	0.041775571
27	480722	150.211632952	0.181678099
27	488116	151.438280152	1.2266472
27	489895	151.810624029	0.372343877
27	496842	153.547725909	1.73710188
27	504476	155.203943642	1.656217733
27	509246	156.345855446	1.141911804
27	512426	157.101088637	0.755233191
27	515986	157.901586828	0.800498191
27	526769	160.202356426	2.300769598
27	527707	160.347059161	0.144702735
27	531076	161.047477846	0.700418685
27	531565	161.170582933	0.123105087
27	537485	162.481190818	1.310607885
27	547702	164.422165154	1.940974336
27	550200	164.834307108	0.412141954
27	556438	166.206522233	1.372215125
27	564465	168.111924762	1.905402529
27	566123	168.531681969	0.419757207
27	572813	170.127393132	1.595711163
27	580310	171.69689745	1.569504318
27	584412	172.7698102	1.07291275
27	586518	173.700149234	0.930339034
27	588884	174.493440702	0.793291468
27	591621	175.350872112	0.85743141
27	598893	177.680189744	2.329317632
27	600858	178.312617792	0.632428048
27	606024	179.916162833	1.603545041
27	607970	180.7683569	0.852194067
27	610689	181.684682184	0.916325284
27	611314	181.940279437	0.255597253
27	612583	182.415408413	0.475128976
27	622790	185.061038418	2.645630005
27	626293	186.288056416	1.227017998
27	630166	187.664970588	1.376914172
27	640492	190.385851729	2.720881141
27	643114	191.260066374	0.874214645
27	651703	193.953608763	2.693542389
27	651719	193.969201546	0.015592783
27	652698	194.332382112	0.363180566
27	652738	194.34060414	0.008222028
27	653738	194.644379322	0.303775182
27	654644	194.882091745	0.237712423
27	656787	195.646507731	0.764415986
27	664893	198.679512148	3.033004417
27	665343	198.874424304	0.194912156
27	666777	199.397213335	0.522789031
27	672436	201.148245943	1.751032608
27	674840	202.133588331	0.985342388
27	677637	203.053088468	0.919500137
27	683900	204.879422369	1.826333901
27	691209	207.264403872	2.384981503
27	691350	207.298804592	0.03440072
27	691882	207.441726424	0.142921832
27	692410	207.544542279	0.102815855
27	700870	209.750104509	2.20556223
27	702869	210.177451404	0.427346895
27	707393	211.555930951	1.378479547
27	713054	213.558408155	2.002477204
27	716078	214.568206593	1.009798438
27	727247	218.338607518	3.770400925
27	727359	218.365853535	0.027246017
27	728330	218.725345692	0.359492157
27	731927	219.785649176	1.060303484
27	734779	220.862877897	1.077228721
27	737692	221.774354849	0.911476952
27	740025	222.461789339	0.68743449
27	745644	223.944512007	1.482722668
27	747378	224.449191538	0.504679531
27	750095	225.838940307	1.389748769
27	751262	226.249599522	0.410659215
27	752424	226.616276734	0.366677212
27	757679	228.810355537	2.194078803
27	763676	230.653024732	1.842669195
27	764145	230.74972461	0.096699878
27	765598	231.125985959	0.376261349
27	767456	231.831239824	0.705253865
27	769695	232.606685682	0.775445858
27	770303	232.870751052	0.26406537
27	772984	233.829475596	0.958724544
27	773516	234.008145281	0.178669685
27	774659	234.440951888	0.432806607
27	781611	236.758092385	2.317140497
27	783762	237.374692789	0.616600404
27	786992	238.541043897	1.166351108
27	787164	238.597169039	0.056125142
27	788347	239.049028249	0.45185921
27	789997	239.532214397	0.483186148
27	790824	239.785110382	0.252895985
27	795130	241.142940128	1.357829746
27	801413	243.021952816	1.879012688
27	802087	243.205829944	0.183877128
27	802241	243.242244214	0.03641427
27	802678	243.374607853	0.132363639
27	803884	243.654183771	0.279575918
27	809022	244.904735154	1.250551383
27	812639	245.601960101	0.697224947
27	818854	246.945467947	1.343507846
27	820159	247.24731307	0.301845123
27	821769	247.682798031	0.435484961
27	830565	249.7867941	2.103996069
27	837251	250.999880812	1.213086712
27	841072	251.821281726	0.821400914
27	846615	253.332673103	1.511391377
27	851842	254.780851127	1.448178024
27	854146	255.303449248	0.522598121
27	854636	255.468391629	0.164942381
27	854754	255.514103406	0.045711777
27	857611	256.245550965	0.731447559
27	861164	257.217311218	0.971760253
27	868511	259.074493164	1.857181946
27	869124	259.246750737	0.172257573
27	876324	260.96329183	1.716541093
27	877562	261.232401452	0.269109622
27	879263	261.665112959	0.432711507
27	879521	261.718560624	0.053447665
27	879761	261.782984472	0.064423848
27	880597	261.98734783	0.204363358
27	882698	262.530545993	0.543198163
27	885682	263.011224707	0.480678714
27	894055	265.090419323	2.079194616
27	894873	265.295315676	0.204896353
27	902606	266.793990723	1.498675047
27	905788	267.396382255	0.602391532
27	906715	267.644813322	0.248431067
27	911643	268.80851453	1.163701208
27	919238	270.288689655	1.480175125
27	920865	270.598923617	0.310233962
27	923668	271.13592399	0.537000373
27	928369	272.257563288	1.121639298
27	930044	272.804268928	0.54670564
27	930511	272.961971778	0.15770285
27	942407	276.146245565	3.184273787
27	943979	276.528555446	0.382309881
27	947773	277.414780887	0.886225441
27	958099	279.878338339	2.463557452
27	959572	280.231206619	0.35286828
27	962120	280.818785513	0.587578894
27	962855	280.961494026	0.142708513
27	964721	281.446672928	0.485178902
27	967041	282.064069269	0.617396341
27	974267	283.639543057	1.575473788
27	977837	284.335000727	0.69545767
27	979833	284.841567816	0.506567089
27	984001	285.771382124	0.929814308
27	991618	287.546671466	1.775289342
27	1003228	290.41674224	2.870070774
27	1004247	290.656555943	0.239813703
27	1006855	291.304341792	0.647785849
27	1011364	292.601666121	1.297324329
27	1015290	293.840991938	1.239325817
27	1015744	293.980240095	0.139248157
27	1018445	294.793083244	0.812843149
27	1027866	297.394557424	2.60147418
27	1034642	300.257329418	2.862771994
27	1043933	303.110130929	2.852801511
27	1048341	304.777911636	1.667780707
27	1049807	305.431541168	0.653629532
27	1050025	305.534814761	0.103273593
27	1051414	305.968624258	0.433809497
27	1052000	306.125842356	0.157218098
27	1068647	310.643340195	4.517497839
27	1073707	312.051959183	1.408618988
27	1074520	312.400395217	0.348436034
27	1089205	317.559193159	5.158797942
27	1089328	317.603814027	0.044620868
27	1092501	318.700299414	1.096485387
27	1095558	319.602128207	0.901828793
27	1098129	320.396174479	0.794046272
27	1101949	321.132698684	0.736524205
27	1104256	322.072542471	0.939843787
27	1104711	322.280079081	0.20753661
27	1116118	325.136938897	2.856859816
27	1122665	327.060172693	1.923233796
27	1124533	327.542669451	0.482496758
27	1127783	328.60317481	1.060505359
27	1131588	329.758137572	1.154962762
27	1134046	330.572201104	0.814063532
27	1135377	331.0845583	0.512357196
27	1140297	332.649397766	1.564839466
27	1143708	333.936659666	1.2872619
27	1150260	335.977016914	2.040357248
27	1150676	336.080947734	0.10393082
27	1151369	336.30867875	0.227731016
27	1155757	337.827055363	1.518376613
27	1158783	339.186388477	1.359333114
27	1162041	340.288945605	1.102557128
27	1167704	341.509204002	1.220258397
27	1173597	343.06402454	1.554820538
27	1175599	343.679890893	0.615866353
27	1175790	343.760444017	0.080553124
27	1175821	343.778529016	0.018084999
27	1176888	344.200514846	0.42198583
27	1180795	345.142378348	0.941863502
27	1185573	346.695954164	1.553575816
27	1185908	346.81767152	0.121717356
27	1189886	348.178758528	1.361087008
27	1190296	348.258364746	0.079606218
27	1193501	349.588854182	1.330489436
27	1194307	349.897256468	0.308402286
27	1194996	350.119324895	0.222068427
27	1197207	350.761233275	0.64190838
27	1197897	350.941907002	0.180673727
27	1200088	351.519931609	0.578024607
27	1209273	354.770799854	3.250868245
27	1215940	357.008097254	2.2372974
27	1219233	358.319848167	1.311750913
27	1221204	358.98788621	0.668038043
27	1229377	361.799790261	2.811904051
27	1231903	362.177705478	0.377915217
27	1236401	363.141347045	0.963641567
27	1237680	363.471309401	0.329962356
27	1237872	363.495821068	0.024511667
27	1239603	363.946388101	0.450567033
27	1251332	366.269092015	2.322703914
27	1251560	366.307617319	0.038525304
27	1254337	366.924650583	0.617033264
27	1256276	367.437804949	0.513154366
27	1259095	368.19280924	0.755004291
27	1265681	369.887803857	1.694994617
27	1271387	371.126638689	1.238834832
27	1271986	371.267083242	0.140444553
27	1273654	371.658684526	0.391601284
27	1273937	371.717201405	0.058516879
27	1274425	371.82306278	0.105861375
27	1285348	374.543185211	2.720122431
27	1289319	375.596912173	1.053726962
27	1295679	376.87795505	1.281042877
27	1300191	378.153272349	1.275317299
27	1318254	382.901305785	4.748033436
27	1330498	385.467848511	2.566542726
27	1331407	385.690991288	0.223142777
27	1338078	387.417149057	1.726157769
27	1344043	388.94104661	1.523897553
27	1361471	393.087500424	4.146453814
27	1362327	393.350179395	0.262678971
27	1362770	393.47895351	0.128774115
27	1364078	393.878797374	0.399843864
27	1364774	394.086922571	0.208125197
27	1371079	395.606816581	1.51989401
27	1382594	398.562157444	2.955340863
27	1386009	399.47423462	0.912077176
27	1387217	399.73086678	0.25663216
27	1393974	401.115785136	1.384918356
27	1394446	401.208370621	0.092585485
27	1394552	401.235025636	0.026655015
27	1396772	401.782206451	0.547180815
27	1406509	403.930419568	2.148213117
27	1406755	404.003741904	0.073322336
27	1409341	404.53459828	0.530856376
27	1412139	405.121290988	0.586692708
27	1413502	405.496018986	0.374727998
27	1417254	406.474835377	0.978816391
27	1417593	406.569587983	0.094752606
27	1419940	407.226542805	0.656954822
27	1420740	407.446210579	0.219667774
27	1426850	409.306342581	1.860132002
27	1427673	409.468233585	0.161891004
27	1430846	410.108606654	0.640373069
27	1430934	410.116654307	0.008047653
27	1435819	411.236340908	1.119686601
27	1436250	411.384231544	0.147890636
27	1440389	412.428181783	1.043950239
27	1445332	414.14831159	1.720129807
27	1447661	414.991524432	0.843212842
27	1457321	417.300523445	2.308999013
27	1462354	419.37316544	2.072641995
27	1466642	420.887638229	1.514472789
27	1471307	422.590848484	1.703210255
27	1473141	423.279251955	0.688403471
27	1473319	423.360878341	0.081626386
27	1477974	424.759087768	1.398209427
27	1480507	425.685872844	0.926785076
27	1481567	425.999199607	0.313326763
27	1481628	426.016767298	0.017567691
27	1484640	426.91134161	0.894574312
27	1485487	427.066155437	0.154813827
27	1491298	428.758993164	1.692837727
27	1495682	430.054214831	1.295221667
27	1496872	430.386349933	0.332135102
27	1498033	430.677964691	0.291614758
27	1499774	431.137569707	0.459605016
27	1501924	431.766389881	0.628820174
27	1505797	432.880621621	1.11423174
27	1506099	432.999453103	0.118831482
27	1509087	433.96035621	0.960903107
27	1510879	434.453121385	0.492765175
27	1520534	437.636534768	3.183413383
27	1526420	439.587528619	1.950993851
27	1526559	439.617563855	0.030035236
27	1529271	440.356198082	0.738634227
27	1530320	440.740253111	0.384055029
27	1530518	440.809305214	0.069052103
27	1541775	444.612146924	3.80284171
27	1553927	447.641135101	3.028988177
27	1583113	456.343401823	8.702266722
27	1591638	459.083292339	2.739890516
27	1591695	459.100615128	0.017322789
27	1593112	459.688739268	0.58812414
27	1594191	460.078889316	0.390150048
27	1596655	461.14567587	1.066786554
27	1598884	461.983624466	0.837948596
27	1599314	462.113629025	0.130004559
27	1601258	462.826686833	0.713057808
27	1601974	463.059620842	0.232934009
27	1602429	463.257738518	0.198117676
27	1603724	463.76730035	0.509561832
27	1605858	464.46973518	0.70243483
27	1612552	466.738879771	2.269144591
27	1619675	469.687631644	2.948751873
27	1621353	470.20344006	0.515808416
27	1621425	470.22670127	0.02326121
27	1622344	470.517367709	0.290666439
27	1626435	471.654653232	1.137285523
27	1627821	472.254731472	0.60007824
27	1629358	472.792087221	0.537355749
27	1637273	475.362260119	2.570172898
27	1637775	475.61024198	0.247981861
27	1638861	476.017685493	0.407443513
27	1639098	476.1179594	0.100273907
27	1647947	479.54336172	3.42540232
27	1649226	480.096444022	0.553082302
27	1650520	480.408884777	0.312440755
27	1652570	481.009193927	0.60030915
27	1654703	481.644212814	0.635018887
27	1658088	482.827396849	1.183184035
27	1664954	484.946012833	2.118615984
27	1665308	485.016772102	0.070759269
27	1667474	485.548033558	0.531261456
27	1668501	485.7271869	0.179153342
27	1670276	486.148731294	0.421544394
27	1676041	488.067713112	1.918981818
27	1678407	488.757556306	0.689843194
27	1679764	489.032538708	0.274982402
27	1683894	489.900196842	0.867658134
27	1685039	490.129313101	0.229116259
27	1685194	490.172634019	0.043320918
27	1693427	492.036973372	1.864339353
27	1698910	493.460861876	1.423888504
27	1701204	494.08060281	0.619740934
27	1703627	494.643158143	0.562555333
27	1713649	497.177372979	2.534214836
27	1714444	497.446814458	0.269441479
27	1714522	497.45650986	0.009695402
27	1714807	497.529604744	0.073094884
27	1719257	498.820380324	1.29077558
27	1720105	498.964295447	0.143915123
27	1725685	500.034279053	1.069983606
27	1726433	500.192751596	0.158472543
27	1726646	500.248459613	0.055708017
27	1734854	502.637884882	2.389425269
27	1735439	502.757870696	0.119985814
27	1744131	504.858788984	2.100918288
27	1744669	504.997932447	0.139143463
27	1750444	506.441993387	1.44406094
27	1751904	506.784620689	0.342627302
27	1761456	509.440738836	2.656118147
27	1766539	510.74728501	1.306546174
27	1771853	511.948004344	1.200719334
27	1772426	512.089785197	0.141780853
27	1774444	512.732332285	0.642547088
27	1778561	513.812870404	1.080538119
27	1789126	516.788102276	2.975231872
27	1789677	516.963349309	0.175247033
27	1790410	517.203066059	0.23971675
27	1797135	518.891521053	1.688454994
27	1797484	518.947396395	0.055875342
27	1800868	519.662178309	0.714781914
27	1805755	520.823356011	1.161177702
27	1808442	521.289302569	0.465946558
27	1810158	521.919935906	0.630633337
27	1813493	523.018426871	1.098490965
27	1814218	523.24355835	0.225131479
27	1814734	523.414340765	0.170782415
27	1816220	523.726168729	0.311827964
27	1821110	524.949067873	1.222899144
27	1822940	525.430302658	0.481234785
27	1826067	526.21086684	0.780564182
27	1826450	526.332976181	0.122109341
27	1829532	527.494286543	1.161310362
27	1830603	527.808542808	0.314256265
27	1832163	528.273710926	0.465168118
27	1837445	529.523906887	1.250195961
27	1853401	534.240791141	4.716884254
27	1854859	534.528104094	0.287312953
27	1858222	535.526953239	0.998849145
27	1867823	538.264235128	2.737281889
27	1872028	539.239268162	0.975033034
27	1874047	539.746109814	0.506841652
27	1879239	541.511586825	1.765477011
27	1881931	542.613582942	1.101996117
27	1883482	543.413949761	0.800366819
27	1884063	543.617817634	0.203867873
27	1887272	544.955203774	1.33738614
27	1887373	544.993392308	0.038188534
27	1887818	545.177143643	0.183751335
27	1887874	545.190323599	0.013179956
27	1887960	545.229168255	0.038844656
27	1895397	547.270869904	2.041701649
27	1895572	547.317592213	0.046722309
27	1896667	547.725425625	0.407833412
27	1897664	547.933699576	0.208273951
27	1903983	549.847330074	1.913630498
27	1905597	550.511364611	0.664034537
27	1906542	550.93741104	0.426046429
27	1907093	551.183721987	0.246310947
27	1907382	551.297894136	0.114172149
27	1907544	551.399593208	0.101699072
27	1909974	552.253115866	0.853522658
27	1911766	552.951057029	0.697941163
27	1922772	556.035481555	3.084424526
27	1924269	556.563083552	0.527601997
27	1924992	556.855477793	0.292394241
27	1925537	557.130723034	0.275245241
27	1926135	557.398266383	0.267543349
27	1927946	557.717436068	0.319169685
27	1932024	559.249047231	1.531611163
27	1933041	559.572328051	0.32328082
27	1936987	560.662870224	1.090542173
27	1938672	561.184964048	0.522093824
27	1941936	562.336089406	1.151125358
27	1945993	563.634889597	1.298800191
27	1946531	563.828795173	0.193905576
27	1951844	564.708457821	0.879662648
27	1955941	565.753840608	1.045382787
27	1956372	565.864259137	0.110418529
27	1958963	566.659237081	0.794977944
27	1963431	567.982602271	1.32336519
27	1967342	569.334299292	1.351697021
27	1976257	572.096445216	2.762145924
27	1978684	573.140873409	1.044428193
27	1979905	573.655826211	0.514952802
27	1987695	575.939081202	2.283254991
27	1988415	576.205416825	0.266335623
27	1989451	576.653513349	0.448096524
27	1989712	576.739346925	0.085833576
27	1993180	577.930331805	1.19098488
27	1993362	578.014565411	0.084233606
27	1997712	579.325173677	1.310608266
27	2002149	580.687753996	1.362580319
27	2003552	581.276181122	0.588427126
27	2004560	581.680496693	0.404315571
27	2008676	583.486401778	1.805905085
27	2010047	584.045362634	0.558960856
27	2011568	584.565459179	0.520096545
27	2014019	585.33396771	0.768508531
27	2015400	585.695255682	0.361287972
27	2015593	585.730845823	0.035590141
27	2028856	590.450353469	4.719507646
27	2031314	591.353630531	0.903277062
27	2031917	591.595707565	0.242077034
27	2033606	592.438586053	0.842878488
27	2036129	593.24067627	0.802090217
27	2038873	594.099507786	0.858831516
27	2042540	595.535828976	1.43632119
27	2044038	596.227638331	0.691809355
27	2044079	596.249484118	0.021845787
27	2047043	597.516083369	1.266599251
27	2047203	597.592687799	0.07660443
27	2048818	598.260739953	0.668052154
27	2048819	598.265115749	0.004375796
27	2049080	598.375388229	0.11027248
27	2054903	600.793678534	2.418290305
27	2055736	600.961166975	0.167488441
27	2056757	601.196344313	0.235177338
27	2057286	601.33960967	0.143265357
27	2057738	601.464522903	0.124913233
27	2059701	602.26897529	0.804452387
27	2063261	603.431141933	1.162166643
27	2065310	603.930336427	0.499194494
27	2066091	604.194475826	0.264139399
27	2067970	604.646092648	0.451616822
27	2070676	605.334990498	0.68889785
27	2073022	605.988490582	0.653500084
27	2074105	606.390286299	0.401795717
27	2078536	607.720914788	1.330628489
27	2079886	608.102742096	0.381827308
27	2080234	608.193413169	0.090671073
27	2080287	608.211969563	0.018556394
27	2080329	608.230732708	0.018763145
27	2082671	608.794942168	0.56420946
27	2084958	609.250553762	0.455611594
27	2087274	609.706534548	0.455980786
27	2088434	609.92251554	0.215980992
27	2090733	610.532840895	0.610325355
27	2100772	613.346764419	2.813923524
27	2101127	613.455479424	0.108715005
27	2101867	613.674054433	0.218575009
27	2102257	613.811632165	0.137577732
27	2105664	614.842822098	1.031189933
27	2105764	614.870554126	0.027732028
27	2106382	615.007469932	0.136915806
27	2106797	615.128070651	0.120600719
27	2108950	615.710346703	0.582276052
27	2116115	617.632727976	1.922381273
27	2127233	621.220922314	3.588194338
27	2128850	621.661700582	0.440778268
27	2131619	622.303397644	0.641697062
27	2132508	622.605989324	0.30259168
27	2146701	627.068745071	4.462755747
27	2150397	628.340170454	1.271425383
27	2152091	628.836468771	0.496298317
27	2164997	632.592021699	3.755552928
27	2173388	634.851438584	2.259416885
27	2174882	635.463914471	0.612475887
27	2174946	635.500591614	0.036677143
27	2176742	636.336315658	0.835724044
27	2178915	636.923531414	0.587215756
27	2180352	637.26048588	0.336954466
27	2180404	637.288210481	0.027724601
27	2189249	639.772460336	2.484249855
27	2192139	640.753562963	0.981102627
27	2195209	641.482613297	0.729050334
27	2196005	641.709078544	0.226465247
27	2200407	643.085284285	1.376205741
27	2207922	645.067744231	1.982459946
27	2210823	645.937073047	0.869328816
27	2211351	646.085705391	0.148632344
27	2218014	648.228249708	2.142544317
27	2219693	648.813394048	0.58514434
27	2222729	649.651222647	0.837828599
27	2222835	649.681336303	0.030113656
27	2224331	650.14992425	0.468587947
27	2228267	651.257339351	1.107415101
27	2234350	653.751978507	2.494639156
27	2238649	655.325506488	1.573527981
27	2249530	658.900245383	3.574738895
27	2251485	659.559880006	0.659634623
27	2251876	659.713048243	0.153168237
27	2251883	659.719317319	0.006269076
27	2252289	659.881894843	0.162577524
27	2253338	660.221998079	0.340103236
27	2257676	661.990034138	1.768036059
27	2259688	662.751370677	0.761336539
27	2262863	664.053535131	1.302164454
27	2263544	664.389696379	0.336161248
27	2266977	665.777360317	1.387663938
27	2268589	666.294419534	0.517059217
27	2269252	666.597138449	0.302718915
27	2270128	666.876044711	0.278906262
27	2271106	667.122196413	0.246151702
27	2274763	668.356191171	1.233994758
27	2283126	670.846827894	2.490636723
27	2285438	671.96768258	1.120854686
27	2286377	672.478757851	0.511075271
27	2288820	673.38344133	0.904683479
27	2298360	676.895357384	3.511916054
27	2298810	677.13036517	0.235007786
27	2303414	678.417918252	1.287553082
27	2304863	679.030910154	0.612991902
27	2304932	679.055195114	0.02428496
27	2308529	680.343142408	1.287947294
27	2312819	682.015573915	1.672431507
27	2320858	684.879136902	2.863562987
27	2325129	685.92872721	1.049590308
27	2329309	687.27762125	1.34889404
27	2337677	690.130626735	2.853005485
27	2339892	690.949301342	0.818674607
27	2340592	691.380970293	0.431668951
27	2347463	693.458881264	2.077910971
27	2356511	696.546849361	3.087968097
27	2360705	698.12032634	1.573476979
27	2362408	698.662273474	0.541947134
27	2363950	699.117223297	0.454949823
27	2374093	702.234768828	3.117545531
27	2376201	703.055065626	0.820296798
27	2380095	704.540839527	1.485773901
27	2380966	704.928473734	0.387634207
27	2386168	707.006827176	2.078353442
27	2387943	707.693275625	0.686448449
27	2388140	707.782833055	0.08955743
27	2388572	708.013874752	0.231041697
27	2388615	708.028223788	0.014349036
27	2391496	708.661441918	0.63321813
27	2406224	712.397329763	3.735887845
27	2406782	712.663155478	0.265825715
27	2411209	714.244644415	1.581488937
27	2412634	714.889963479	0.645319064
27	2414226	715.37061982	0.480656341
27	2414797	715.609497417	0.238877597
27	2416604	716.125487975	0.515990558
27	2419633	716.799339498	0.673851523
27	2421114	717.319027559	0.519688061
27	2426025	719.390965538	2.071937979
27	2426767	719.596987805	0.206022267
27	2427655	719.970214037	0.373226232
27	2427946	720.091835215	0.121621178
27	2431117	720.814085388	0.722250173
27	2432990	721.566396758	0.75231137
27	2438095	723.295806949	1.729410191
27	2442165	724.441291925	1.145484976
27	2447637	725.980988845	1.53969692
27	2450690	727.0574363	1.076447455
27	2454707	728.495169929	1.437733629
27	2456383	729.026006771	0.530836842
27	2456683	729.107780356	0.081773585
27	2463999	730.78833889	1.680558534
27	2477745	734.595627521	3.807288631
27	2481088	735.436005625	0.840378104
27	2483746	735.788435716	0.352430091
27	2484054	735.888907111	0.100471395
27	2485828	736.327616522	0.438709411
27	2487556	736.683178332	0.35556181
27	2493131	738.407060593	1.723882261
27	2494110	738.715511904	0.308451311
27	2495089	739.069058415	0.353546511
27	2495738	739.300631484	0.231573069
27	2504892	741.968361543	2.667730059
27	2505999	742.219140733	0.25077919
27	2507148	742.5177399	0.298599167
27	2519280	745.914866238	3.397126338
27	2519614	746.047971514	0.133105276
27	2522296	746.759570833	0.711599319
27	2522727	746.903985579	0.144414746
27	2522866	746.952879613	0.048894034
27	2528069	748.756213493	1.80333388
27	2528300	748.819636083	0.06342259
27	2529024	749.029986188	0.210350105
27	2531796	749.660023807	0.630037619
27	2532490	749.846246273	0.186222466
27	2536517	750.862721725	1.016475452
27	2539657	751.655727249	0.793005524
27	2540576	751.860276004	0.204548755
27	2541579	752.157967652	0.297691648
27	2541917	752.285812358	0.127844706
27	2542462	752.525376589	0.239564231
27	2542738	752.670018923	0.144642334
27	2544580	753.398022437	0.728003514
27	2545255	753.616780863	0.218758426
27	2547299	754.228523378	0.611742515
27	2549031	754.645585177	0.417061799
27	2549691	754.837502429	0.191917252
27	2551508	755.456934709	0.61943228
27	2556874	757.409012202	1.952077493
27	2556920	757.428565055	0.019552853
27	2560584	758.36069345	0.932128395
27	2562567	758.97803515	0.6173417
27	2564874	759.662609163	0.684574013
27	2572519	762.303148498	2.640539335
27	2572569	762.329127425	0.025978927
27	2575350	763.035682071	0.706554646
27	2577982	763.949495884	0.913813813
27	2591585	767.639133254	3.68963737
27	2592917	768.019156834	0.38002358
27	2594756	768.676936994	0.65778016
27	2596979	769.071981581	0.395044587
27	2600357	770.202988319	1.131006738
27	2600671	770.308577447	0.105589128
27	2611838	773.536654367	3.22807692
27	2620624	775.797598215	2.260943848
27	2636806	779.840074248	4.042476033
27	2646558	783.487320748	3.6472465
27	2654942	786.76916047	3.281839722
27	2661829	789.297714735	2.528554265
27	2671174	792.13630955	2.838594815
27	2671449	792.235673909	0.099364359
27	2673026	792.891235866	0.655561957
27	2676338	794.056261599	1.165025733
27	2681369	795.547591334	1.491329735
27	2685071	796.504753794	0.95716246
27	2693093	799.149487139	2.644733345
27	2694148	799.560978649	0.41149151
27	2695839	800.175901574	0.614922925
27	2701460	802.075837654	1.89993608
27	2701654	802.14267551	0.066837856
27	2702302	802.345702517	0.203027007
27	2703061	802.620473566	0.274771049
27	2704133	802.938825193	0.318351627
27	2704909	803.129285154	0.190459961
27	2710132	804.679679513	1.550394359
27	2712586	805.329460059	0.649780546
27	2716827	806.579850455	1.250390396
27	2719875	807.300421924	0.720571469
27	2724349	808.564887982	1.264466058
27	2724833	808.74498894	0.180100958
27	2725936	809.14162803	0.39663909
27	2726367	809.280895808	0.139267778
27	2728043	809.771443385	0.490547577
27	2728989	810.219315572	0.447872187
27	2730855	810.911220662	0.69190509
27	2732332	811.541841517	0.630620855
27	2732522	811.629397737	0.08755622
27	2735197	812.429823577	0.80042584
27	2736328	812.769132107	0.33930853
27	2738060	813.165477657	0.39634555
27	2743516	814.095517338	0.930039681
27	2746413	814.944669549	0.849152211
27	2750385	816.209417569	1.26474802
27	2751422	816.428495665	0.219078096
27	2756553	817.742971682	1.314476017
27	2758497	818.156411881	0.413440199
27	2765855	820.122231425	1.965819544
27	2767289	820.603422762	0.481191337
27	2767455	820.632973437	0.029550675
27	2773602	822.379449747	1.74647631
27	2774016	822.56188513	0.182435383
27	2774444	822.796437288	0.234552158
27	2785848	826.836012943	4.039575655
27	2785881	826.844162151	0.008149208
27	2786839	827.134822686	0.290660535
27	2787041	827.189983597	0.055160911
27	2790212	828.463384536	1.273400939
27	2790883	828.709825335	0.246440799
27	2795072	829.992094418	1.282269083
27	2796116	830.272029268	0.27993485
27	2799127	830.960124265	0.688094997
27	2803136	831.936321388	0.976197123
27	2808053	833.598399585	1.662078197
27	2808336	833.703858693	0.105459108
27	2808702	833.807462225	0.103603532
27	2811471	834.647484106	0.840021881
27	2813336	835.222998652	0.575514546
27	2819526	837.225364027	2.002365375
27	2822154	837.972618957	0.74725493
27	2823914	838.635161688	0.662542731
27	2824691	838.88771282	0.252551132
27	2824882	838.982200972	0.094488152
27	2829603	840.495060675	1.512859703
27	2829653	840.51040801	0.015347335
27	2831211	840.864900692	0.354492682
27	2832751	841.294884467	0.429983775
27	2839733	843.206750523	1.911866056
27	2840442	843.464583953	0.25783343
27	2842874	844.248183407	0.783599454
27	2844400	844.748884211	0.500700804
27	2846455	845.438345581	0.68946137
27	2848346	845.761564331	0.32321875