version 2
run ChordDht-2-20211202-14:30:19-10332
attr Lifetime 300s
attr configname ChordDht
attr datetime 20211202-14:30:19
attr experiment ChordDht
attr inifile configs.ini
attr iterationvars $Lifetime=300s
attr iterationvars2 "$Lifetime=300s, $repetition=0"
attr measurement $Lifetime=300s
attr network oversim.underlay.simpleunderlay.SimpleUnderlayNetwork
attr processid 10332
attr repetition 0
attr replication #0
attr resultdir results
attr runnumber 2
attr seedset 2

vector 13  SimpleUnderlayNetwork.globalObserver.globalStatistics  "GlobalNodeList: Number of nodes"  ETV
vector 14  SimpleUnderlayNetwork.globalObserver.globalStatistics  "GlobalDhtTestMap: Number of stored DHT entries"  ETV
vector 15  SimpleUnderlayNetwork.globalObserver.globalStatistics  "LifetimeChurn: Session Time"  ETV
vector 16  SimpleUnderlayNetwork.globalObserver.globalStatistics  "LifetimeChurn: Time between creates"  ETV
vector 17  SimpleUnderlayNetwork.globalObserver.globalStatistics  "LifetimeChurn: Time between deletes"  ETV
13	438143	150	517
13	594232	200	516
13	722661	250	512
13	891529	300	525
13	1024542	350	518
13	1181871	400	509
13	1319642	450	495
13	1447905	500	495
13	1588291	550	512
13	1724595	600	529
13	1870137	650	524
13	2002659	700	529
13	2138663	750	529
13	2275013	800	528
13	2412997	850	519
13	2540560	900	507
13	2669433	950	499
13	2800727	1000	507
13	2926784	1050	519
13	3060246	1100	523
14	438144	150	681
14	476027	160	748
14	511243	170	824
14	542911	180	889
14	569131	190	971
14	594233	200	1039
14	619914	210	1116
14	644358	220	1184
14	667399	230	1270
14	691568	240	1327
14	722662	250	1393
14	754976	260	1480
14	790883	270	1564
14	824865	280	1634
14	857900	290	1710
14	891530	300	1768
14	919838	310	1833
14	946047	320	1915
14	971378	330	1990
14	998823	340	2069
14	1024543	350	2144
14	1049809	360	2192
14	1083862	370	2191
14	1113928	380	2195
14	1146870	390	2187
14	1181872	400	2187
14	1211696	410	2183
14	1242813	420	2203
14	1269978	430	2206
14	1296633	440	2205
14	1319643	450	2206
14	1345172	460	2196
14	1368254	470	2196
14	1392809	480	2193
14	1420150	490	2182
14	1447906	500	2185
14	1479687	510	2179
14	1508369	520	2188
14	1534890	530	2164
14	1561574	540	2179
14	1588292	550	2186
14	1615210	560	2189
14	1641790	570	2175
14	1667861	580	2184
14	1696054	590	2177
14	1724596	600	2168
14	1754909	610	2183
14	1784767	620	2196
14	1815174	630	2195
14	1843473	640	2204
14	1870138	650	2202
14	1896631	660	2213
14	1924072	670	2201
14	1950894	680	2203
14	1976108	690	2205
14	2002660	700	2217
14	2028659	710	2221
14	2052552	720	2235
14	2083488	730	2233
14	2109457	740	2219
14	2138664	750	2209
14	2167957	760	2233
14	2197385	770	2238
14	2223420	780	2255
14	2249912	790	2256
14	2275014	800	2263
14	2301735	810	2270
14	2331449	820	2277
14	2359903	830	2294
14	2386788	840	2294
14	2412998	850	2292
14	2438127	860	2273
14	2463591	870	2282
14	2489280	880	2281
14	2515680	890	2277
14	2540561	900	2308
14	2565891	910	2295
14	2594486	920	2286
14	2620650	930	2283
14	2645573	940	2278
14	2669434	950	2276
14	2697373	960	2278
14	2719651	970	2281
14	2747779	980	2272
14	2772358	990	2265
14	2800728	1000	2250
14	2825591	1010	2244
14	2852260	1020	2222
14	2875592	1030	2236
14	2901346	1040	2245
14	2926785	1050	2252
14	2953803	1060	2246
14	2979772	1070	2244
14	3008592	1080	2234
14	3034665	1090	2235
14	3060247	1100	2229
14	3085412	1110	2227
14	3111088	1120	2217
14	3136315	1130	2206
14	3158788	1140	2186
15	438944	150.187575773	1630.643245126
15	442427	150.89524216	226.392653917
15	445516	151.672687703	670.944235817
15	447258	152.278577039	189.645355545
15	447798	152.488282756	171.343979672
15	450688	153.21906486	2.930081433
15	451930	153.518880391	173.195928482
15	452204	153.585380567	40.110713512
15	454988	154.33313731	566.516503184
15	456487	154.585532346	189.52550416
15	458626	155.213500337	170.495630845
15	461800	156.031105189	3.658323168
15	465636	157.244051988	78.389084485
15	474292	159.549182096	963.514301333
15	474873	159.742676983	196.595474117
15	476813	160.20339165	64.198041625
15	477320	160.329555321	167.687219161
15	480896	161.400250415	162.352461399
15	487508	163.377488589	135.097188836
15	487707	163.439871754	143.684870526
15	490734	164.345385434	593.566364294
15	491390	164.502612086	311.521011746
15	491716	164.559728666	280.071650666
15	494491	165.173019213	38.978441401
15	494908	165.264638596	29.137015501
15	495799	165.498073654	421.01612421
15	497249	165.893720532	255.563492648
15	500849	167.005988583	82.553864917
15	502010	167.328103207	223.795607007
15	502445	167.483393853	567.813514321
15	505395	168.289130835	537.218237988
15	509511	169.470248579	1.893993796
15	510754	169.852630216	512.283188747
15	511737	170.11589946	314.730392074
15	514653	170.90209483	45.212243906
15	517537	171.598824674	115.034413542
15	518168	171.791867524	1226.683384846
15	518490	171.893281414	184.562686772
15	518511	171.900293999	162.607956817
15	518656	171.948906138	92.167783411
15	520938	172.566446412	717.94136582
15	524390	173.619884327	131.269890465
15	524876	173.862084456	7.649017711
15	525421	174.056966035	582.89887721
15	528838	175.205117819	10.932287053
15	529121	175.300585548	253.39307646
15	529366	175.368961598	1148.025878387
15	529621	175.444142428	425.655633907
15	529880	175.526763999	43.350803041
15	532599	176.230710255	353.043537127
15	532731	176.255518116	77.636191548
15	533947	176.56299085	37.51045072
15	535018	176.926836014	212.035023087
15	535534	177.077528894	572.218574111
15	540065	178.774447539	592.044144906
15	540557	178.950355151	241.815973523
15	541911	179.569002447	377.349858675
15	547560	182.048797918	127.366278899
15	548541	182.572516504	565.527940614
15	549992	183.144217877	237.953841613
15	550619	183.352979406	481.680105514
15	552253	183.951560799	277.422168813
15	555077	184.84920046	177.253988832
15	556695	185.460993397	67.4924588
15	558490	186.234090781	95.224893578
15	558626	186.309449638	13.553371025
15	559656	186.601628527	170.113828075
15	560830	186.942521338	135.700105118
15	562393	187.520406749	149.770892677
15	564413	188.131041451	60.250126014
15	566549	189.017878897	289.469936099
15	566740	189.080627294	205.881787174
15	567194	189.253632567	194.56981667
15	568783	189.858025204	461.127041879
15	569096	189.991374241	72.332262137
15	570407	190.453070164	282.574659437
15	575945	192.44571873	112.359098567
15	576982	192.884701008	372.970896612
15	578412	193.277793287	328.952946244
15	579394	193.757959651	242.502032941
15	580886	194.595586186	541.897237796
15	583935	195.776448044	231.207336248
15	585105	196.307840993	692.876733984
15	586219	196.764571057	326.356720484
15	586242	196.768336125	3.997627246
15	586388	196.819453917	135.370415727
15	587597	197.197156618	311.024312084
15	590913	198.235446584	1026.603494653
15	592935	199.249145148	336.324729144
15	594353	200.072764946	622.151812355
15	594686	200.229565589	146.763217385
15	595604	200.436690282	1346.014823968
15	595767	200.475219645	405.83669777
15	597140	201.042557316	805.543221528
15	597169	201.059088968	240.643573901
15	599662	202.247522796	259.731405651
15	599784	202.318968573	191.096033305
15	599929	202.379000369	158.965449007
15	600124	202.474048952	318.859217162
15	600327	202.5607295	144.112352357
15	600973	202.707301894	66.893335214
15	601624	203.011533147	5.308169489
15	604084	204.060277462	554.872419468
15	604612	204.346905735	139.765485863
15	606142	205.042553906	259.200683227
15	606661	205.261506216	309.430603825
15	607140	205.499084838	220.024696684
15	609421	206.426347348	97.537084608
15	610188	206.751184735	408.803801717
15	610728	206.924037568	204.506034991
15	612872	207.631676412	969.17293506
15	615180	208.423438085	362.386257955
15	616449	208.720557221	23.554938166
15	618179	209.34528859	131.614488512
15	623831	211.517216444	856.377190868
15	624119	211.65088198	820.550801105
15	624783	211.931132413	625.874336082
15	625292	212.226941902	67.016702709
15	625426	212.311441417	382.487167345
15	625542	212.362937209	303.987212491
15	627520	213.281352832	794.11433354
15	627764	213.433082655	57.011729511
15	628478	213.65182488	30.741194574
15	628858	213.799035104	77.380987956
15	629924	214.304192963	252.942261531
15	632029	214.851387104	474.641189927
15	635777	216.207265126	619.371412063
15	636150	216.308206247	932.463888563
15	636624	216.529844689	206.321768674
15	639036	217.603136196	364.504218097
15	640671	218.164388379	899.379870665
15	641322	218.419235591	69.435421535
15	641491	218.481728695	118.308972012
15	642972	219.275253538	627.604562312
15	643887	219.839462474	731.266858526
15	644004	219.895739231	94.558725615
15	647786	221.308234003	38.772626214
15	649790	222.057224795	29.616092511
15	653524	223.756081636	29.324580086
15	654116	224.043165034	468.759772077
15	654433	224.166478306	297.709727617
15	661425	227.34532531	301.025834882
15	661807	227.478373204	280.398934581
15	674863	232.769798477	87.430417217
15	674982	232.832467971	393.433740723
15	676900	233.584647494	52.355944064
15	677462	233.8349475	232.607381492
15	679207	234.530938756	62.863472218
15	679306	234.573307236	102.749518936
15	682344	235.750362242	248.639240999
15	682515	235.823457882	88.317049199
15	682790	235.903606612	233.984491743
15	685556	237.20011009	160.711306649
15	686610	237.621821228	328.206891961
15	687174	237.894184272	198.043779143
15	689232	238.89762215	1036.05851974
15	690646	239.5675135	5.745700873
15	691001	239.71361727	67.59748877
15	692761	240.468909837	71.84240043
15	694620	241.309019214	116.594641537
15	698203	242.386209532	366.489283881
15	701314	243.198154181	374.503792771
15	704281	244.362333568	43.145249594
15	706106	245.014918873	38.624242168
15	709535	245.983948186	395.584013746
15	711378	246.561164708	1400.540681815
15	712938	247.025305181	480.964032462
15	717290	248.315911434	608.854168372
15	717614	248.459136066	223.545259026
15	718586	248.827565712	492.487952631
15	722638	249.995915357	229.258716154
15	725172	251.004383432	45.491398245
15	726905	251.523663122	490.067461121
15	727039	251.572010139	230.654700798
15	727105	251.592643647	68.530706488
15	728673	252.192715543	195.08426374
15	729149	252.37806814	421.053084754
15	731591	253.252490354	285.289058573
15	735045	254.537431285	40.800895087
15	736575	254.874586898	321.338991859
15	736716	254.912253722	573.663812021
15	737703	255.238690434	125.293942039
15	738679	255.574337515	66.19904771
15	741520	256.193548923	437.64436645
15	753433	259.437007792	620.265538861
15	754154	259.756970289	1057.827378728
15	754674	259.913773579	301.73236772
15	755894	260.354071247	218.589260475
15	758913	261.260597367	285.442302248
15	760800	261.790201282	25.132708295
15	765144	263.179991175	65.017729126
15	766792	263.720101127	270.228852221
15	773258	265.486989435	415.870362379
15	777580	266.712282024	73.73460919
15	778623	266.994815962	62.213005307
15	780187	267.385804079	220.076519051
15	790259	269.807585489	277.400411858
15	795216	271.125196299	76.608116477
15	796094	271.343846449	1230.627928722
15	797262	271.701336497	346.668214701
15	797887	271.936587046	157.198987611
15	798484	272.178150927	204.311173633
15	798574	272.215455468	435.585369765
15	801633	273.235875539	142.891843256
15	802681	273.481452784	597.329468118
15	803726	273.768542014	180.755176521
15	805992	274.595790297	64.975160831
15	806100	274.626093968	20.272319456
15	806540	274.77287133	718.118825128
15	806907	274.888924942	139.199357163
15	808435	275.346578483	39.642073504
15	811734	276.35239498	141.242459488
15	816275	277.593052011	724.128381851
15	818096	278.095381583	184.124737771
15	818482	278.187195468	158.199184927
15	818697	278.242539394	275.741091648
15	819510	278.500868186	356.734798626
15	820448	278.78272735	191.855832828
15	823171	279.549595699	93.029798846
15	829405	281.554540556	277.334842364
15	833413	282.68597664	1509.91248112
15	839733	285.148282023	33.8070381
15	840321	285.301792891	236.593268721
15	841214	285.566331873	1.108412604
15	842232	285.843063036	177.61340735
15	844059	286.343802757	22.522252202
15	844770	286.644184486	243.289827386
15	846445	287.081227092	83.64888976
15	848464	287.561310697	192.218808081
15	849766	287.851751062	367.047728952
15	849807	287.858499584	200.714912007
15	852123	288.477232926	1064.167921852
15	852671	288.630459032	45.404558356
15	857537	289.897548034	27.427917586
15	861252	291.106945541	13.11328151
15	861893	291.265888533	159.340120348
15	862922	291.562634049	337.105319471
15	868605	293.389401229	90.083205472
15	869213	293.612759528	18.184654707
15	870004	293.945102343	365.770461429
15	870935	294.273068365	167.700735009
15	871631	294.551765315	84.356249381
15	872024	294.692575896	168.548812135
15	872355	294.773579241	81.428153484
15	876868	295.918180139	163.364581841
15	878306	296.220968998	310.112386959
15	879447	296.519264187	341.383460088
15	879788	296.631637773	86.709785742
15	880076	296.756051468	18.227080782
15	880178	296.803921467	1077.80967176
15	881165	297.066769415	65.740840857
15	883096	297.616515611	383.246096796
15	884520	298.015108549	23.231459121
15	886691	298.43408884	123.914562237
15	888252	298.980615108	443.917572222
15	889177	299.242131362	139.804356008
15	891713	300.071010115	1031.192925432
15	891783	300.097391147	676.020794586
15	891851	300.122360777	56.262503418
15	896071	301.584710158	630.779468815
15	903342	304.588529403	254.432166812
15	903793	304.756050268	412.888021411
15	904649	305.159526295	438.1770992
15	910030	306.6377162	97.574922205
15	912546	307.515778116	15.720828211
15	913388	307.775516676	328.1990066
15	913783	307.910661815	116.144663445
15	914773	308.293269423	160.828118485
15	915759	308.664217368	86.930855071
15	920205	310.143564016	1023.483341646
15	920227	310.145090015	64.056105364
15	924609	311.72159772	64.973277004
15	924659	311.743737886	879.194989434
15	925589	312.156376627	647.551501156
15	926075	312.376332977	57.312580001
15	928226	313.485621465	155.347542806
15	928397	313.553473916	68.062358181
15	932158	314.990629069	44.963956935
15	932363	315.085820706	166.099563103
15	932557	315.152147305	175.724011288
15	935083	316.094078093	2.698739021
15	935268	316.169358863	408.383188593
15	935707	316.321398979	113.799224531
15	936040	316.420171272	56.183183912
15	936970	316.819510827	117.357993893
15	937269	316.977600248	33.852740969
15	938602	317.560732222	247.508446159
15	939611	317.93161875	398.438079682
15	941250	318.480125774	81.071668914
15	941812	318.656380725	369.207357676
15	943737	319.220306081	595.572973314
15	944604	319.504903959	684.394427706
15	947809	320.617631558	169.11253648
15	952963	322.780138291	339.888364067
15	953099	322.831046906	34.642911216
15	955281	323.864795752	23.021083845
15	955415	323.941668657	3.505649972
15	956494	324.437612482	66.588703652
15	957249	324.747197366	72.321478317
15	958000	324.989213894	382.015753849
15	961238	326.212937202	15.620064375
15	961468	326.301658607	385.450219325
15	963529	327.318459772	14.112301894
15	964096	327.545546467	64.446147544
15	964937	327.830333047	317.084582127
15	965103	327.87540252	650.833724436
15	965722	328.073942868	184.997535635
15	968348	329.045210927	145.310781276
15	968553	329.118528487	517.39622736
15	969403	329.404943111	181.151307073
15	971329	329.993435874	143.525328193
15	973449	330.68943164	1098.972360292
15	973919	330.820427586	63.536621758
15	976718	331.786102772	630.42119999
15	977979	332.308241397	79.108438892
15	979625	332.898110321	569.281264054
15	979696	332.924552564	743.095626355
15	981500	333.589762934	339.9684242
15	981879	333.761933102	78.790584857
15	982141	333.858278459	4.303083546
15	985291	335.006379624	442.018981738
15	987037	335.639169731	174.183922396
15	987914	335.833212111	611.824940095
15	991611	337.342054265	351.659108434
15	993541	338.06882529	127.93286147
15	995085	338.505955362	288.060017979
15	996990	339.469372243	449.85899428
15	998051	339.700209542	360.056680971
15	1001510	341.130745729	67.687160735
15	1002845	341.582032484	45.998846814
15	1005039	342.330000433	1436.408222923
15	1006435	342.959323999	69.97393056
15	1008282	343.817632206	295.534322246
15	1008335	343.849264929	25.304770048
15	1010290	344.635808835	205.792075886
15	1011041	344.880332091	19.041476687
15	1012389	345.503803912	949.176504657
15	1017636	347.259848861	4.92563274
15	1019140	347.870880671	426.823977268
15	1020099	348.238693639	622.905954847
15	1020701	348.432315234	287.388320542
15	1021224	348.638454844	572.81721412
15	1021737	348.956820075	179.146626062
15	1021752	348.959695902	240.204954805
15	1022535	349.305065385	84.308929618
15	1026419	350.535003975	188.677117433
15	1028152	351.154593064	57.299244065
15	1031548	352.539961113	200.189187977
15	1035473	354.024974165	1448.984429634
15	1035757	354.147230338	23.029856401
15	1037166	354.730964395	36.396968278
15	1039718	355.932403291	16.779368735
15	1043484	357.808970249	141.184232364
15	1043520	357.823135906	129.952570971
15	1043965	358.043812826	629.190987825
15	1044569	358.295540809	107.32811929
15	1044606	358.308735727	326.067088297
15	1045553	358.819943505	68.029251652
15	1046085	359.028467233	155.116990084
15	1047032	359.26766691	122.433180212
15	1047116	359.281993748	68.651255572
15	1047650	359.415418497	497.571432792
15	1050940	360.334490954	87.169902907
15	1051095	360.391613525	1143.145410094
15	1052447	360.89639009	636.024247359
15	1058836	363.068683723	16.836416676
15	1059204	363.161868164	665.860599403
15	1061241	363.846726645	170.238877026
15	1061365	363.901556211	103.312858506
15	1063037	364.528501024	343.676784848
15	1065366	365.17357099	70.088327436
15	1067522	365.694702864	240.590721743
15	1069395	366.043058304	223.390776626
15	1071143	366.524106809	167.525657485
15	1071721	366.733082715	159.3823888
15	1075173	368.058594366	183.503657563
15	1076511	368.328981511	1138.027758393
15	1077492	368.602885823	75.835596171
15	1080519	369.300120684	488.245700295
15	1085671	370.627438377	127.267887701
15	1086639	371.001965612	219.236649098
15	1089240	371.811895644	67.015375252
15	1089255	371.811904585	41.664898088
15	1090696	372.410961527	4.595579226
15	1093537	373.377581891	46.728004241
15	1094709	373.836878422	55.716224003
15	1095182	374.048983792	789.154315945
15	1098647	375.154861865	948.389881362
15	1100110	375.712569297	111.697240656
15	1104722	376.873099062	210.367080389
15	1105060	377.027649796	272.039202062
15	1106463	377.642152023	112.810457766
15	1106676	377.697749788	304.453657894
15	1111713	379.433922901	1387.948391229
15	1117078	380.923594363	804.847585434
15	1118536	381.169662142	84.149637152
15	1119192	381.34521303	22.122243207
15	1119920	381.604284568	613.865382158
15	1120275	381.724767713	445.088241691
15	1126650	383.649874772	236.685393904
15	1131180	384.941662488	167.386034434
15	1133061	385.569683003	94.166373319
15	1134315	385.938672675	110.863627909
15	1137217	387.038387025	7.608773843
15	1137314	387.062823301	212.161606978
15	1138890	387.558673206	111.030377329
15	1139205	387.648142487	574.917791808
15	1144390	389.250369162	257.133215137
15	1150168	390.753980374	32.122952745
15	1151486	391.113324913	130.671871102
15	1158442	393.432843468	465.859880329
15	1163051	395.105818235	250.779064229
15	1164558	395.433204549	11.393135879
15	1166216	395.859940509	862.894667172
15	1168550	396.508773216	127.226176291
15	1168665	396.532732646	31.626899422
15	1169977	396.939980569	76.055736959
15	1170906	397.239815663	154.956552275
15	1173985	397.900911174	145.998563395
15	1175379	398.237347528	640.889165358
15	1178584	399.080013308	72.295619549
15	1179719	399.32044509	65.355569528
15	1183788	400.850488365	42.72950292
15	1184147	400.98112411	229.660706269
15	1185776	401.52446245	364.493701088
15	1188337	402.394157161	291.288627975
15	1190332	403.044158906	54.461169288
15	1191204	403.443821936	264.983895895
15	1191448	403.540207451	61.614351982
15	1191914	403.683933627	74.198337954
15	1191929	403.685774005	124.501613626
15	1192869	404.041802084	336.896466775
15	1196666	405.400644272	1057.495523457
15	1197102	405.507187463	430.365910314
15	1197440	405.632382498	22.217857466
15	1201431	406.774169608	19.130141476
15	1202297	407.074667834	130.231594375
15	1207036	408.433954514	92.305060136
15	1212955	410.407572161	51.662324584
15	1215706	411.530623938	361.5443583
15	1216639	411.951551925	305.814943697
15	1216746	411.978899127	80.961312341
15	1217202	412.120885894	72.052754042
15	1218673	412.536800126	462.918499337
15	1220629	413.175726568	172.597905764
15	1221196	413.361943844	232.579401647
15	1222192	413.6395332	398.188469753
15	1224420	414.330825836	163.865737201
15	1225446	414.742387748	206.43365119
15	1228657	415.502295289	168.098528073
15	1231579	416.089604626	4.335373216
15	1231704	416.13643013	214.463025819
15	1233797	416.778584527	24.412601675
15	1234458	416.992971368	202.793624956
15	1238103	418.223524783	133.429460669
15	1239124	418.604084765	78.960173106
15	1239441	418.766764562	93.015049784
15	1240690	419.270829238	42.500784593
15	1241541	419.547552874	59.300283846
15	1242459	419.880632172	738.154265013
15	1246167	421.077220976	238.148544649
15	1249600	422.400813044	580.362469803
15	1250713	422.898792374	3.151804052
15	1251141	423.127006197	181.532749379
15	1252385	423.624789937	6.622942856
15	1255176	424.351855468	645.036467937
15	1255933	424.682638481	712.738514689
15	1261693	426.803087307	690.214304035
15	1262491	427.148341482	37.28091072
15	1263688	427.635037657	472.017050428
15	1266252	428.843312987	35.67072013
15	1275174	431.961414723	0.270666918
15	1276260	432.226477802	618.39186464
15	1276413	432.262817574	73.540999424
15	1277474	432.824508784	316.230976956
15	1279475	433.905939019	357.072343713
15	1279522	433.922660988	111.984800928
15	1279775	434.016604852	778.16515011
15	1281801	434.750718601	6.621202711
15	1282171	434.904311031	95.102681169
15	1284432	435.708430221	586.808998936
15	1284769	435.800537115	489.536760944
15	1287055	436.471455951	32.659797771
15	1287978	436.856006051	339.516377154
15	1288632	437.188002581	125.279414052
15	1290495	437.935395486	73.28796275
15	1290974	438.14774693	304.997349305
15	1291000	438.151799567	1146.541444496
15	1299503	441.324979078	301.076049528
15	1301738	442.395410478	584.45118068
15	1303255	442.935999847	546.602036982
15	1306827	444.554671518	674.968708775
15	1307323	444.70011342	209.508199151
15	1308523	445.321031115	90.907679619
15	1310335	445.952600308	525.041039137
15	1312530	446.855527777	23.316969913
15	1314257	447.724265543	54.05028123
15	1314272	447.727454906	286.167779868
15	1314468	447.831250767	457.991261495
15	1314912	448.051592769	105.511658861
15	1315584	448.300421228	101.710902608
15	1315932	448.480398707	150.695976987
15	1316820	448.866876676	545.013387689
15	1319898	450.116430008	515.554309982
15	1321241	450.747404452	613.047692097
15	1323213	451.700739479	251.276808805
15	1323945	452.060188615	443.213762257
15	1325509	452.580067885	250.872192662
15	1326811	453.203431959	93.045147651
15	1327767	453.585610029	47.774152095
15	1328207	453.717325278	446.986896535
15	1328657	453.858530654	76.519208497
15	1329363	454.118820458	605.008365102
15	1331058	454.950320054	1971.906701356
15	1331202	454.986381907	250.611142927
15	1333311	455.796865877	324.675109759
15	1335933	456.865552887	317.9273636
15	1336881	457.202601007	195.673995855
15	1338526	457.627439836	651.029339299
15	1339047	457.797063313	504.204710035
15	1339759	458.062204253	591.139889737
15	1339792	458.071594763	125.331264008
15	1340187	458.208857738	162.64005331
15	1342901	459.196568073	49.769416542
15	1343455	459.36650959	216.729179862
15	1345748	460.347804816	250.821566099
15	1345829	460.396740055	315.432914326
15	1345853	460.399586901	69.521645661
15	1346088	460.582090444	2.848593338
15	1346190	460.599118613	432.162094988
15	1348879	461.683838183	409.801974806
15	1348969	461.730169541	244.841985684
15	1349671	462.095205527	284.406268607
15	1349936	462.188515488	53.132008198
15	1354140	463.943424544	339.160707071
15	1357135	465.069224837	1531.447525595
15	1359408	466.029775669	713.19347772
15	1359916	466.192378176	468.542810235
15	1367933	469.863335943	172.405319003
15	1369336	470.410527188	647.295264328
15	1371377	471.207697488	25.539781048
15	1371466	471.228570832	628.976545209
15	1371580	471.266446763	411.143795872
15	1373194	471.846536656	671.559268986
15	1373857	472.184165863	29.164992306
15	1376063	473.192108913	74.877529783
15	1378386	474.422783214	1128.180224208
15	1378584	474.524269022	806.606380017
15	1380305	475.239286795	387.943401051
15	1381722	475.815685204	359.353269386
15	1382930	476.371727926	350.139424409
15	1383505	476.695645198	40.493745705
15	1385414	477.238987399	89.350507695
15	1387532	478.05559582	367.870562652
15	1390534	479.338212361	497.114369713
15	1393601	480.279073089	529.822871855
15	1394285	480.557157851	132.307920729
15	1396383	481.484570348	130.240987511
15	1399594	482.57568634	440.167568452
15	1400112	482.776950643	86.180096599
15	1402317	483.7076834	349.981099469
15	1404544	484.787038376	127.747293913
15	1409458	486.49842749	352.117349362
15	1409826	486.647160164	163.513722113
15	1411740	487.197112528	175.832068568
15	1412198	487.388473668	528.355638445
15	1412714	487.571061422	33.25740752
15	1415927	488.705088293	201.912117498
15	1416255	488.830017141	275.686285624
15	1416851	489.032241725	107.880828659
15	1418801	489.586306612	1096.151859303
15	1419257	489.722180481	902.443044007
15	1420411	490.079605932	222.080847172
15	1421461	490.478153207	443.219380603
15	1421790	490.663716989	376.061807721
15	1421844	490.686594905	30.929054964
15	1421931	490.719790658	1309.960706888
15	1422241	490.871427748	151.285403238
15	1425661	492.181123423	114.51018358
15	1427428	492.967330993	245.326228393
15	1427827	493.082195956	394.958845681
15	1429351	493.644461688	208.45336551
15	1431908	494.708845803	327.182304393
15	1432016	494.737246616	656.912811724
15	1434458	495.692289753	336.002938497
15	1435879	496.076684314	268.463155713
15	1437572	496.737475694	139.676414858
15	1438032	496.96874837	177.745292017
15	1439271	497.280813339	618.968254774
15	1439747	497.393578411	462.250539769
15	1440042	497.491737415	211.57044236
15	1440192	497.540781746	239.918954891
15	1441953	498.19224035	115.213596328
15	1450122	500.692800125	78.576311708
15	1455053	501.95677858	711.758911982
15	1455142	502.000506174	352.849907113
15	1456299	502.33954625	70.476512783
15	1456884	502.47886189	618.47415949
15	1461089	503.761261368	894.705674539
15	1464487	504.818087397	40.469775264
15	1464879	504.906091612	342.129705098
15	1464913	504.914796066	1470.81007135
15	1467841	505.879503205	352.380315224
15	1468458	506.099185259	9.97877356
15	1469333	506.314075072	420.601202963
15	1469949	506.53026876	155.55579092
15	1471045	506.922824057	294.677618242
15	1471145	506.952344291	428.328972391
15	1472995	507.491257811	60.616514085
15	1475534	508.302013779	77.064983967
15	1476545	508.696841321	78.133605312
15	1477831	509.328645314	6.62696496
15	1480097	510.109366147	262.455072026
15	1482222	510.642391229	1067.201657435
15	1482800	510.850772966	51.526060769
15	1485773	511.739047305	23.533947503
15	1486200	511.928602336	594.57245631
15	1488012	512.854300077	701.12086336
15	1488606	513.119223029	170.61370721
15	1488642	513.127984171	131.860904537
15	1490344	513.721807837	342.737349113
15	1491610	514.226127004	157.973041127
15	1491818	514.294789114	291.506765163
15	1495095	515.431570319	178.620244677
15	1498025	516.333639828	422.469035396
15	1498449	516.482141174	33.771185503
15	1500343	517.243101888	593.246994732
15	1502033	517.729019955	178.448987043
15	1503169	518.071951105	176.918797529
15	1505172	518.763564338	31.216884156
15	1506607	519.251539668	189.301641726
15	1508298	519.985975561	67.511062035
15	1509240	520.396165794	440.152240544
15	1513398	522.039117429	850.898697286
15	1514796	522.606814283	646.67572016
15	1514900	522.639907466	278.420467731
15	1517578	523.517303506	629.884786722
15	1518867	523.985411939	84.083438674
15	1519148	524.103359176	18.321616161
15	1525451	526.128476664	709.998965138
15	1526968	526.745976766	28.864050174
15	1527770	527.057232371	90.398240385
15	1529741	527.824784633	760.162018832
15	1531889	528.634387493	695.017046786
15	1533329	529.320806729	45.289300265
15	1535651	530.174060302	269.008623763
15	1536803	530.588741692	676.953968455
15	1536908	530.640834548	89.756590949
15	1538254	531.036480598	22.884130109
15	1538963	531.332759009	718.689353587
15	1540241	531.930880813	84.238168791
15	1543523	533.210492813	348.764821419
15	1545761	534.116288053	183.146613082
15	1548599	535.026000601	271.430509061
15	1549485	535.285270064	80.70382661
15	1550385	535.529009388	599.84973767
15	1554533	537.018851842	191.5147766
15	1554793	537.144100717	37.526507661
15	1555117	537.272365286	338.926485889
15	1555771	537.663930608	0.546148317
15	1558217	538.569428362	2.099484798
15	1561618	540.01992547	21.541109322
15	1562646	540.577150169	24.382210232
15	1564514	541.188943664	397.190687006
15	1565057	541.321705724	28.42786549
15	1567356	542.033722777	836.012138837
15	1568808	542.579538126	806.51894724
15	1569875	543.056997596	30.534042666
15	1570447	543.316781422	74.713633285
15	1571206	543.679322781	84.414284229
15	1572925	544.243636509	29.262896056
15	1574941	544.942066884	60.962439834
15	1575985	545.276463744	305.29791484
15	1577997	546.208829233	243.864567923
15	1578166	546.26343321	42.610075718
15	1580347	546.919998514	167.346850104
15	1581208	547.184320784	267.025860174
15	1582130	547.530892721	48.526968495
15	1583429	548.114646326	139.933273706
15	1586492	549.365078123	63.307978626
15	1587340	549.714304958	36.995711624
15	1588188	549.97094608	385.536959811
15	1588443	550.048986296	273.209459025
15	1589834	550.509429585	302.608580476
15	1591642	550.821108422	49.554593644
15	1593135	551.251860267	122.518063088
15	1595405	551.897296493	112.047251926
15	1596344	552.242392592	100.831791857
15	1596848	552.465722918	20.26019819
15	1597935	553.006969302	265.556937704
15	1598541	553.213524925	49.527179231
15	1599399	553.587227709	200.552208135
15	1603033	555.238820401	443.181317588
15	1607126	556.749869471	633.581222843
15	1607441	556.849025875	1225.671733901
15	1608010	557.116616187	521.788662312
15	1609253	557.70388937	319.220835816
15	1610650	558.239501838	80.23316745
15	1613158	559.196256655	173.256148922