version 2
run ChordDht-6-20211202-15:25:34-10332
attr Lifetime 700s
attr configname ChordDht
attr datetime 20211202-15:25:34
attr experiment ChordDht
attr inifile configs.ini
attr iterationvars $Lifetime=700s
attr iterationvars2 "$Lifetime=700s, $repetition=0"
attr measurement $Lifetime=700s
attr network oversim.underlay.simpleunderlay.SimpleUnderlayNetwork
attr processid 10332
attr repetition 0
attr replication #0
attr resultdir results
attr runnumber 6
attr seedset 6

vector 37  SimpleUnderlayNetwork.globalObserver.globalStatistics  "GlobalNodeList: Number of nodes"  ETV
vector 38  SimpleUnderlayNetwork.globalObserver.globalStatistics  "GlobalDhtTestMap: Number of stored DHT entries"  ETV
vector 39  SimpleUnderlayNetwork.globalObserver.globalStatistics  "LifetimeChurn: Time between deletes"  ETV
vector 40  SimpleUnderlayNetwork.globalObserver.globalStatistics  "LifetimeChurn: Session Time"  ETV
vector 41  SimpleUnderlayNetwork.globalObserver.globalStatistics  "LifetimeChurn: Time between creates"  ETV
37	488503	150	517
37	686067	200	516
37	853369	250	516
37	1078015	300	512
37	1234416	350	491
37	1444563	400	505
37	1639974	450	513
37	1832932	500	517
37	2055384	550	520
37	2240037	600	516
37	2473596	650	518
37	2656939	700	519
37	2864092	750	514
37	3060902	800	513
37	3241842	850	514
37	3451728	900	515
37	3636043	950	524
37	3838482	1000	520
37	4032958	1050	519
37	4220008	1100	511
38	488504	150	746
38	536667	160	837
38	586469	170	913
38	621366	180	990
38	654854	190	1073
38	686068	200	1148
38	715588	210	1239
38	748041	220	1318
38	780873	230	1396
38	808105	240	1476
38	853370	250	1554
38	902093	260	1631
38	949685	270	1727
38	995499	280	1805
38	1043750	290	1892
38	1078016	300	1959
38	1111712	310	2024
38	1142774	320	2106
38	1174461	330	2188
38	1204020	340	2275
38	1234417	350	2350
38	1262603	360	2413
38	1302944	370	2426
38	1349709	380	2403
38	1396102	390	2391
38	1444564	400	2386
38	1493510	410	2391
38	1535411	420	2418
38	1570414	430	2411
38	1604887	440	2419
38	1639975	450	2401
38	1672335	460	2401
38	1704901	470	2403
38	1742918	480	2402
38	1782793	490	2390
38	1832933	500	2401
38	1882144	510	2393
38	1931263	520	2392
38	1976307	530	2390
38	2012841	540	2387
38	2055385	550	2408
38	2094823	560	2396
38	2137215	570	2391
38	2170774	580	2389
38	2205745	590	2383
38	2240038	600	2411
38	2282972	610	2435
38	2323978	620	2422
38	2372494	630	2427
38	2418749	640	2414
38	2473597	650	2427
38	2513968	660	2424
38	2549394	670	2425
38	2583663	680	2442
38	2621743	690	2445
38	2656940	700	2429
38	2695817	710	2438
38	2731215	720	2427
38	2777961	730	2435
38	2822132	740	2441
38	2864093	750	2429
38	2905966	760	2424
38	2952433	770	2441
38	2988968	780	2437
38	3025513	790	2434
38	3060903	800	2440
38	3095044	810	2433
38	3134037	820	2447
38	3169405	830	2455
38	3202475	840	2461
38	3241843	850	2427
38	3282060	860	2449
38	3322620	870	2436
38	3364820	880	2442
38	3413051	890	2466
38	3451729	900	2442
38	3489120	910	2433
38	3528088	920	2435
38	3565112	930	2417
38	3600589	940	2439
38	3636044	950	2457
38	3669246	960	2451
38	3709326	970	2448
38	3754845	980	2434
38	3793802	990	2424
38	3838483	1000	2447
38	3878967	1010	2443
38	3920400	1020	2455
38	3958937	1030	2461
38	3996980	1040	2437
38	4032959	1050	2450
38	4071270	1060	2449
38	4105904	1070	2435
38	4140773	1080	2464
38	4179344	1090	2474
38	4220009	1100	2456
38	4257525	1110	2446
38	4298478	1120	2445
38	4338457	1130	2444
38	4374285	1140	2413
39	491214	150.495475135	2.939919251
39	491769	150.618547694	0.123072559
39	498085	151.935736697	1.317189003
39	510433	154.491501591	2.555764894
39	510998	154.613431253	0.121929662
39	523321	157.231725507	2.618294254
39	536570	159.980598033	2.748872526
39	538411	160.346734963	0.36613693
39	539711	160.575331957	0.228596994
39	562954	165.320689877	4.74535792
39	581588	169.100725801	3.780035924
39	582459	169.268534387	0.167808586
39	595972	172.312453437	3.04391905
39	599471	173.393512622	1.081059185
39	600434	173.592796693	0.199284071
39	610508	176.355153104	2.762356411
39	612568	176.903134398	0.547981294
39	615634	177.922219596	1.019085198
39	618199	178.832044385	0.909824789
39	626416	181.265735596	2.433691211
39	629392	182.223564981	0.957829385
39	632576	183.312583984	1.089019003
39	634957	183.913139635	0.600555651
39	637220	184.509506252	0.596366617
39	638112	184.756195625	0.246689373
39	641527	185.649718395	0.89352277
39	650247	188.365618221	2.715899826
39	652513	189.105766772	0.740148551
39	658998	191.310654987	2.204888215
39	659713	191.541238101	0.230583114
39	667912	194.084701319	2.543463218
39	670209	195.029031953	0.944330634
39	677844	197.41891159	2.389879637
39	679216	197.946648942	0.527737352
39	687838	200.447697506	2.501048564
39	698519	204.516530826	4.06883332
39	703498	206.172640135	1.656109309
39	717478	210.525993416	4.353353281
39	721740	211.959813196	1.43381978
39	726413	213.124146968	1.164333772
39	728019	213.549640357	0.425493389
39	728675	213.718620034	0.168979677
39	734448	215.455522885	1.736902851
39	739368	217.014845817	1.559322932
39	744413	218.939751628	1.924905811
39	744891	219.098596311	0.158844683
39	747249	219.709241047	0.610644736
39	747846	219.934940798	0.225699751
39	764623	224.985897634	5.050956836
39	767676	225.948651926	0.962754292
39	768990	226.308132634	0.359480708
39	769737	226.537237087	0.229104453
39	781374	230.152869063	3.615631976
39	782846	230.65657261	0.503703547
39	784545	231.295461987	0.638889377
39	785302	231.546502321	0.251040334
39	799642	236.868850315	5.322347994
39	800086	237.078186675	0.20933636
39	804325	238.554987766	1.476801091
39	807671	239.86325807	1.308270304
39	809261	240.30018667	0.4369286
39	814458	241.766775144	1.466588474
39	817310	242.382550323	0.615775179
39	829501	244.860923618	2.478373295
39	835462	246.128474812	1.267551194
39	835845	246.239579463	0.111104651
39	837076	246.599956906	0.360377443
39	840171	247.28227265	0.682315744
39	863449	252.019177842	4.736905192
39	866970	252.834508617	0.815330775
39	881921	255.702669854	2.868161237
39	882733	255.874921819	0.172251965
39	883549	256.063514048	0.188592229
39	884546	256.293944266	0.230430218
39	885652	256.536057318	0.242113052
39	885940	256.610293277	0.074235959
39	887932	257.093971618	0.483678341
39	889092	257.367902866	0.273931248
39	897790	259.144237955	1.776335089
39	907662	261.246694565	2.10245661
39	910911	262.042792425	0.79609786
39	914309	262.786012372	0.743219947
39	919051	263.638068857	0.852056485
39	926274	265.05857097	1.420502113
39	936428	267.168124146	2.109553176
39	941854	268.360290499	1.192166353
39	947706	269.551671184	1.191380685
39	953884	271.045600614	1.49392943
39	974360	275.476376836	4.430776222
39	975376	275.699757278	0.223380442
39	977462	275.942787277	0.243029999
39	978018	276.051637345	0.108850068
39	983412	277.211148157	1.159510812
39	992259	279.080642302	1.869494145
39	1000798	281.239143532	2.15850123
39	1010159	283.138251967	1.899108435
39	1012266	283.595954554	0.457702587
39	1013020	283.739524904	0.14357035
39	1014761	284.180470403	0.440945499
39	1014840	284.203038098	0.022567695
39	1030670	287.563886319	3.360848221
39	1035950	288.43355011	0.869663791
39	1036720	288.549690422	0.116140312
39	1044367	290.120298414	1.570607992
39	1044938	290.201280629	0.080982215
39	1051780	291.731924922	1.530644293
39	1059110	294.106661768	2.374736846
39	1059741	294.2617366	0.155074832
39	1063740	295.42271423	1.16097763
39	1066744	296.294170736	0.871456506
39	1068128	296.849430295	0.555259559
39	1069180	297.141384342	0.291954047
39	1080132	300.61208829	3.470703948
39	1081370	300.934312823	0.322224533
39	1083810	301.827459796	0.893146973
39	1085741	302.519344349	0.691884553
39	1086684	302.832502384	0.313158035
39	1088685	303.487244109	0.654741725
39	1093144	304.580533789	1.09328968
39	1096943	305.44295536	0.862421571
39	1098162	305.861301266	0.418345906
39	1100339	306.614176869	0.752875603
39	1106880	308.528198466	1.914021597
39	1113728	310.677347201	2.149148735
39	1118278	312.180307566	1.502960365
39	1118655	312.291142982	0.110835416
39	1124155	314.024639482	1.7334965
39	1126064	314.643863194	0.619223712
39	1130931	316.134381501	1.490518307
39	1132431	316.490536618	0.356155117
39	1132596	316.529714027	0.039177409
39	1134359	317.13832506	0.608611033
39	1134907	317.349048938	0.210723878
39	1136276	317.957407807	0.608358869
39	1140356	319.407858998	1.450451191
39	1146075	321.013822523	1.605963525
39	1146706	321.195189271	0.181366748
39	1160969	325.647683132	4.452493861
39	1165984	327.260259689	1.612576557
39	1172429	329.159308793	1.899049104
39	1173481	329.548867686	0.389558893
39	1175653	330.310567105	0.761699419
39	1178160	331.076862872	0.766295767
39	1179664	331.717680016	0.640817144
39	1184023	333.313405634	1.595725618
39	1184512	333.529107131	0.215701497
39	1193040	336.385853546	2.856746415
39	1197233	337.466605133	1.080751587
39	1197579	337.578401939	0.111796806
39	1199919	338.417554362	0.839152423
39	1207770	341.011049565	2.593495203
39	1226714	347.223657771	6.212608206
39	1240511	352.070432678	4.846774907
39	1242406	352.740828129	0.670395451
39	1250519	356.033925565	3.293097436
39	1276956	363.40974241	7.375816845
39	1293291	367.35576235	3.94601994
39	1301968	369.751586952	2.395824602
39	1308480	370.850321072	1.09873412
39	1324185	374.146205683	3.295884611
39	1325159	374.364568363	0.21836268
39	1325619	374.467317414	0.102749051
39	1331176	375.563583393	1.096265979
39	1334507	376.219154662	0.655571269
39	1346562	379.191090974	2.971936312
39	1351345	380.322719709	1.131628735
39	1351663	380.39499369	0.072273981
39	1351850	380.432178186	0.037184496
39	1354018	380.98692929	0.554751104
39	1356113	381.720161804	0.733232514
39	1360026	382.731604121	1.011442317
39	1367070	384.179375445	1.447771324
39	1368994	384.557040264	0.377664819
39	1380501	386.792853016	2.235812752
39	1380549	386.802815097	0.009962081
39	1382498	387.285716785	0.482901688
39	1392558	389.244543617	1.958826832
39	1396484	390.076227893	0.831684276
39	1406538	391.899747402	1.823519509
39	1447473	400.56689334	8.667145938
39	1452381	401.577322262	1.010428922
39	1452679	401.62445278	0.047130518
39	1475276	406.401192035	4.776739255
39	1481499	407.552678406	1.151486371
39	1482751	407.806758126	0.25407972
39	1485463	408.320695034	0.513936908
39	1490558	409.421883637	1.101188603
39	1502510	412.116714301	2.694830664
39	1514787	415.178615239	3.061900938
39	1520878	416.426922782	1.248307543
39	1528079	417.576190711	1.149267929
39	1530264	418.00249248	0.426301769
39	1534208	419.544899323	1.542406843
39	1543874	422.853026175	3.308126852
39	1545834	423.56096036	0.707934185
39	1548116	424.239205911	0.678245551
39	1568398	429.232235875	4.993029964
39	1573657	430.76996359	1.537727715
39	1578030	432.188503625	1.418540035
39	1578855	432.518347271	0.329843646
39	1583356	433.68151019	1.163162919
39	1588295	435.075376514	1.393866324
39	1592313	436.013517591	0.938141077
39	1594863	436.683037777	0.669520186
39	1597044	437.35811344	0.675075663
39	1608879	440.864711141	3.506597701
39	1616268	442.817788511	1.95307737
39	1618217	443.458981204	0.641192693
39	1618753	443.622602	0.163620796
39	1644496	451.507498777	7.884896777
39	1645464	451.825972928	0.318474151
39	1650494	453.379067971	1.553095043
39	1650722	453.45152201	0.072454039
39	1654877	454.850503271	1.398981261
39	1660307	455.947189242	1.096685971
39	1664228	457.108626559	1.161437317
39	1664248	457.117095826	0.008469267
39	1667831	458.467626305	1.350530479
39	1668813	458.781663585	0.31403728
39	1670129	459.178279582	0.396615997
39	1670472	459.279851419	0.101571837
39	1671504	459.692600245	0.412748826
39	1672682	460.140408886	0.447808641
39	1683576	463.579792848	3.439383962
39	1685456	464.189512457	0.609719609
39	1689659	465.157049989	0.967537532
39	1693990	466.338286081	1.181236092
39	1697854	467.447799436	1.109513355
39	1700304	468.471777977	1.023978541
39	1702945	469.321986831	0.850208854
39	1703418	469.513596416	0.191609585
39	1712053	471.842598352	2.329001936
39	1717112	473.202294421	1.359696069
39	1718796	473.638454507	0.436160086
39	1721867	474.495263714	0.856809207
39	1734938	477.47092316	2.975659446
39	1734945	477.47277907	0.00185591
39	1765308	486.014970475	8.542191405
39	1773038	487.819493468	1.804522993
39	1778471	488.982399315	1.162905847
39	1780706	489.54526	0.562860685
39	1798887	493.028507082	3.483247082
39	1799063	493.065641917	0.037134835
39	1801015	493.36218337	0.296541453
39	1803901	494.064957164	0.702773794
39	1808389	494.843366218	0.778409054
39	1818539	496.50092245	1.657556232
39	1819135	496.599485511	0.098563061
39	1830185	499.13312003	2.533634519
39	1834903	500.479853439	1.346733409
39	1849394	503.810776012	3.330922573
39	1852576	504.285462222	0.47468621
39	1853629	504.449691287	0.164229065
39	1860639	505.711043473	1.261352186
39	1865554	506.832510983	1.12146751
39	1866121	506.952155406	0.119644423
39	1874047	508.43463414	1.482478734
39	1877226	508.961180576	0.526546436
39	1878836	509.326166153	0.364985577
39	1905076	514.546429344	5.220263191
39	1914246	516.560888851	2.014459507
39	1914791	516.670290987	0.109402136
39	1917205	517.208441581	0.538150594
39	1918180	517.485299668	0.276858087
39	1918409	517.525538347	0.040238679
39	1927031	519.066705753	1.541167406
39	1929882	519.636650034	0.569944281
39	1949491	524.228419008	4.591768974
39	1951165	524.725758445	0.497339437
39	1970118	528.5181535	3.792395055
39	1970842	528.67682266	0.15866916
39	1984894	532.052582011	3.375759351
39	1985723	532.28491798	0.232335969
39	1987094	532.7996038	0.51468582
39	1987740	533.043916243	0.244312443
39	2010039	539.327424691	6.283508448
39	2018093	541.400718541	2.07329385
39	2022374	542.925911212	1.525192671
39	2023313	543.198922103	0.273010891
39	2054684	549.821364876	6.622442773
39	2054826	549.860597938	0.039233062
39	2060015	551.145376802	1.284778864
39	2060202	551.203813059	0.058436257
39	2060954	551.425500322	0.221687263
39	2063638	552.029859504	0.604359182
39	2070184	553.734938785	1.705079281
39	2070225	553.751934222	0.016995437
39	2070427	553.816031765	0.064097543
39	2072879	554.407999522	0.591967757
39	2080070	555.903586371	1.495586849
39	2080173	555.940920884	0.037334513
39	2082583	556.727677368	0.786756484
39	2085873	557.80877706	1.081099692
39	2117263	564.633271214	6.824494154
39	2124534	566.811770065	2.178498851
39	2128046	567.464554558	0.652784493
39	2130324	568.059642069	0.595087511
39	2138381	570.340003194	2.280361125
39	2138989	570.517149778	0.177146584
39	2144080	572.086542484	1.569392706
39	2145973	572.600644756	0.514102272
39	2146800	572.836427619	0.235782863
39	2147167	572.94395401	0.107526391
39	2152251	574.699047942	1.755093932
39	2155950	575.744161147	1.045113205
39	2167106	579.043545246	3.299384099
39	2180715	582.948461883	3.904916637
39	2183983	583.928670924	0.980209041
39	2185847	584.378186238	0.449515314
39	2192113	586.149351899	1.771165661
39	2203756	589.334640965	3.185289066
39	2208255	590.688762402	1.354121437
39	2209957	591.201355919	0.512593517
39	2212841	591.961867491	0.760511572
39	2218768	593.585211525	1.623344034
39	2222106	594.580251314	0.995039789
39	2222492	594.771124604	0.19087329
39	2232677	597.61386309	2.842738486
39	2238145	599.430901056	1.817037966
39	2238779	599.65995097	0.229049914
39	2240594	600.107317526	0.447366556
39	2240619	600.118526019	0.011208493
39	2249319	602.246354708	2.127828689
39	2256651	604.068640747	1.822286039
39	2292680	612.149117697	8.08047695
39	2295523	612.799041003	0.649923306
39	2303136	614.689111379	1.890070376
39	2307810	615.672876616	0.983765237
39	2316893	617.831128619	2.158252003
39	2320602	619.004909972	1.173781353
39	2326815	620.637229413	1.632319441
39	2329012	620.991565155	0.354335742
39	2332435	621.845353911	0.853788756
39	2333050	621.96438605	0.119032139
39	2334575	622.333468258	0.369082208
39	2348307	624.877209096	2.543740838
39	2355525	626.410955878	1.533746782
39	2355587	626.426572584	0.015616706
39	2359051	627.306958959	0.880386375
39	2363120	628.236143042	0.929184083
39	2373780	630.237896712	2.00175367
39	2376015	630.704070356	0.466173644
39	2376521	630.798227229	0.094156873
39	2381165	631.918014911	1.119787682
39	2382639	632.184563249	0.266548338
39	2391358	634.10458391	1.920020661
39	2392753	634.356976688	0.252392778
39	2399047	635.586299761	1.229323073
39	2399572	635.660707063	0.074407302
39	2415140	639.119167674	3.458460611
39	2415202	639.125865931	0.006698257
39	2418056	639.865980891	0.74011496
39	2422237	640.801216494	0.935235603
39	2434633	642.808941701	2.007725207
39	2438504	643.374048933	0.565107232
39	2441148	643.863209565	0.489160632
39	2444700	644.783816427	0.920606862
39	2447112	645.306160271	0.522343844
39	2462258	648.043399031	2.73723876
39	2475987	650.407125188	2.363726157
39	2477336	650.719437565	0.312312377
39	2480350	651.39921461	0.679777045
39	2486481	652.721151212	1.321936602
39	2500159	655.971384863	3.250233651
39	2501846	656.474691234	0.503306371
39	2504115	657.025604385	0.550913151
39	2505590	657.442493489	0.416889104
39	2510764	658.989000689	1.5465072
39	2514005	660.007655429	1.01865474
39	2515581	660.489165447	0.481510018
39	2518383	661.475089923	0.985924476
39	2539566	667.186009902	5.710919979
39	2548653	669.75687739	2.570867488
39	2559999	672.957142322	3.200264932
39	2581632	679.526887352	6.56974503
39	2585297	680.367266501	0.840379149
39	2585404	680.389546213	0.022279712
39	2586050	680.547617553	0.15807134
39	2593238	682.79180644	2.244188887
39	2609656	687.070577939	4.278771499
39	2612305	687.58883961	0.518261671
39	2614154	688.177697767	0.588858157
39	2619153	689.184536999	1.006839232
39	2621889	690.04953515	0.864998151
39	2622894	690.381655521	0.332120371
39	2623390	690.531734656	0.150079135
39	2633161	692.763196055	2.231461399
39	2636676	693.802772118	1.039576063
39	2647989	697.254449682	3.451677564
39	2652546	699.034369467	1.779919785
39	2657467	700.117944781	1.083575314
39	2661456	700.98168999	0.863745209
39	2662944	701.486957463	0.505267473
39	2675235	704.342187962	2.855230499
39	2689351	708.328002764	3.985814802
39	2689712	708.418503199	0.090500435
39	2693250	709.373613295	0.955110096
39	2700785	711.320002687	1.946389392
39	2703183	711.897690605	0.577687918
39	2708379	713.527141867	1.629451262
39	2711110	714.500156973	0.973015106
39	2716515	715.886820834	1.386663861
39	2724699	718.08773962	2.200918786
39	2725160	718.187335852	0.099596232
39	2726834	718.600671163	0.413335311
39	2728058	718.917378128	0.316706965
39	2744402	723.183518309	4.266140181
39	2745068	723.329759719	0.14624141
39	2749812	724.548336331	1.218576612
39	2751522	724.882257419	0.333921088
39	2752917	725.088623638	0.206366219
39	2762263	726.88542458	1.796800942
39	2763778	727.226734948	0.341310368
39	2767756	727.940775993	0.714041045
39	2770997	728.649161961	0.708385968
39	2773151	729.24020404	0.591042079
39	2776308	729.655238695	0.415034655
39	2781080	730.652533892	0.997295197
39	2783783	731.335447083	0.682913191
39	2783931	731.365212306	0.029765223
39	2787540	732.000435018	0.635222712
39	2791571	732.98864699	0.988211972
39	2795126	733.672483624	0.683836634
39	2797933	734.467201998	0.794718374
39	2812247	737.678345951	3.211143953
39	2813955	738.276734397	0.598388446
39	2814468	738.431878934	0.155144537
39	2815066	738.580463341	0.148584407
39	2827590	741.215731502	2.635268161
39	2829011	741.504484752	0.28875325
39	2829894	741.778172399	0.273687647
39	2840981	744.24422299	2.466050591
39	2844270	745.066955828	0.822732838
39	2849186	746.179470686	1.112514858
39	2850059	746.411649406	0.23217872
39	2856501	748.04361703	1.631967624
39	2861867	749.475575833	1.431958803
39	2873069	752.119735059	2.644159226
39	2874213	752.453133591	0.333398532
39	2874336	752.473654022	0.020520431
39	2879341	753.751267223	1.277613201
39	2882049	754.461516261	0.710249038
39	2887963	755.67123746	1.209721199
39	2900177	758.561949297	2.890711837
39	2901079	758.753443964	0.191494667
39	2901757	758.871410263	0.117966299
39	2921391	763.369054657	4.497644394
39	2931390	765.744884041	2.375829384
39	2939043	766.943698181	1.19881414
39	2940507	767.205518732	0.261820551
39	2943086	767.733487485	0.527968753
39	2946013	768.39099999	0.657512505
39	2951655	769.796091718	1.405091728
39	2955349	770.738565722	0.942474004
39	2959647	771.87111753	1.132551808
39	2964525	773.068266465	1.197148935
39	2988757	779.937417259	6.869150794
39	2989553	780.130626342	0.193209083
39	2995121	782.022079228	1.891452886
39	2998117	782.819214413	0.797135185
39	3002600	784.112960469	1.293746056
39	3003226	784.251880585	0.138920116
39	3005659	784.926079396	0.674198811
39	3019977	788.30136649	3.375287094
39	3023793	789.479430748	1.178064258
39	3027821	790.658355016	1.178924268
39	3028005	790.726847493	0.068492477
39	3035128	792.613483305	1.886635812
39	3046923	796.173835171	3.560351866
39	3047201	796.278166394	0.104331223
39	3072446	803.770220674	7.49205428
39	3072534	803.796814511	0.026593837
39	3083658	807.125337896	3.328523385
39	3086524	807.705414519	0.580076623
39	3102690	811.954346688	4.248932169
39	3109543	814.281733163	2.327386475
39	3112527	815.200093939	0.918360776
39	3115972	815.84535993	0.645265991
39	3119150	816.37096605	0.52560612
39	3136487	820.595167079	4.224201029
39	3147598	823.892458074	3.297290995
39	3150569	824.635501494	0.74304342
39	3159261	827.448401508	2.812900014
39	3159909	827.584319606	0.135918098
39	3162303	828.306276871	0.721957265
39	3165577	829.17274183	0.866464959
39	3168859	829.833608877	0.660867047
39	3170201	830.276587114	0.442978237
39	3178725	832.789880123	2.513293009
39	3179801	833.045822392	0.255942269
39	3182111	833.772232102	0.72640971
39	3187637	835.375009906	1.602777804
39	3195546	837.722937523	2.347927617
39	3224035	845.617254685	7.894317162
39	3228265	846.904421639	1.287166954
39	3228663	847.045037213	0.140615574
39	3233058	847.76659858	0.721561367
39	3241434	849.898428747	2.131830167
39	3243722	850.434491603	0.536062856
39	3268817	856.533725308	6.099233705
39	3268950	856.574021121	0.040295813
39	3269757	856.791847142	0.217826021
39	3274443	857.819122797	1.027275655
39	3276389	858.4557242	0.636601403
39	3279421	859.32568062	0.86995642
39	3297362	863.611244205	4.285563585
39	3299490	864.052971878	0.441727673
39	3305193	865.30100817	1.248036292
39	3317391	868.798861724	3.497853554
39	3329575	871.319307898	2.520446174
39	3335326	872.562381128	1.24307323
39	3338623	873.441072725	0.878691597
39	3344729	874.829597543	1.388524818
39	3370750	881.607271224	6.777673681
39	3372313	881.979067292	0.371796068
39	3378602	883.283925704	1.304858412
39	3379601	883.484918076	0.200992372
39	3384953	884.452457491	0.967539415
39	3385288	884.567860594	0.115403103
39	3385817	884.789143199	0.221282605
39	3398630	887.361841127	2.572697928
39	3405120	888.53774136	1.175900233
39	3414995	890.523030206	1.985288846
39	3415554	890.673119205	0.150088999
39	3416551	890.96410784	0.290988635
39	3422624	892.69612519	1.73201735
39	3455924	901.297845695	8.601720505
39	3460423	902.540255067	1.242409372
39	3472816	905.792855283	3.252600216
39	3473038	905.857480883	0.0646256
39	3491292	910.718462254	4.860981371
39	3492044	910.988094598	0.269632344
39	3494722	911.789498295	0.801403697
39	3511499	915.812872854	4.023374559
39	3515194	916.424821802	0.611948948
39	3516989	916.844740925	0.419919123
39	3519803	917.593236325	0.7484954
39	3521797	918.233334413	0.640098088
39	3522161	918.297719891	0.064385478
39	3528477	920.094155461	1.79643557
39	3532329	921.205071367	1.110915906
39	3536609	922.385870996	1.180799629
39	3544730	924.616226693	2.230355697
39	3545649	925.0398228	0.423596107
39	3556146	927.534879356	2.495056556
39	3569952	931.582723294	4.047843938
39	3571917	932.221334088	0.638610794
39	3575092	933.123586665	0.902252577
39	3585105	935.958680824	2.835094159
39	3594147	938.188887131	2.230206307
39	3598543	939.547236402	1.358349271
39	3605018	941.472639587	1.925403185
39	3607734	942.429522137	0.95688255
39	3612080	943.304695369	0.875173232
39	3613416	943.670343712	0.365648343
39	3618355	945.003239431	1.332895719
39	3620878	945.793847072	0.790607641
39	3624265	946.627242154	0.833395082
39	3624541	946.724277366	0.097035212
39	3624916	946.81763148	0.093354114
39	3626416	947.27848848	0.460857
39	3633018	949.190497728	1.912009248
39	3636832	950.254752373	1.064254645
39	3640159	951.279393309	1.024640936
39	3648264	953.463204296	2.183810987
39	3649504	953.865109292	0.401904996
39	3655382	955.835564461	1.970455169
39	3661182	957.576077894	1.740513433
39	3672969	961.154235024	3.57815713
39	3682095	963.714933182	2.560698158
39	3690392	965.567574904	1.852641722
39	3691240	965.734673141	0.167098237
39	3693011	966.136197701	0.40152456
39	3695549	966.878076062	0.741878361
39	3696381	967.06288792	0.184811858
39	3699749	967.845462846	0.782574926
39	3711396	970.410038053	2.564575207
39	3712161	970.597380485	0.187342432
39	3713114	970.812453307	0.215072822
39	3718451	972.024727768	1.212274461
39	3719775	972.299607167	0.274879399
39	3721972	972.880530564	0.580923397
39	3725751	973.895275397	1.014744833
39	3745468	977.867292921	3.972017524
39	3750013	978.85724607	0.989953149
39	3752392	979.42337233	0.56612626
39	3764204	982.310528595	2.887156265
39	3768813	983.445282773	1.134754178
39	3788729	988.733811889	5.288529116
39	3789982	989.125465755	0.391653866
39	3793455	989.934642843	0.809177088
39	3796127	990.511840317	0.577197474
39	3804523	992.555923026	2.044082709
39	3805289	992.723128905	0.167205879
39	3806018	992.898123168	0.174994263
39	3812692	994.102263999	1.204140831
39	3821813	996.08516447	1.982900471
39	3839694	1000.239887223	4.154722753
39	3843530	1001.168777659	0.928890436
39	3845040	1001.57484051	0.406062851
39	3846529	1002.061840003	0.486999493
39	3857782	1005.094216392	3.032376389
39	3861381	1005.910466914	0.816250522
39	3872897	1008.58508934	2.674622426
39	3889432	1012.641017879	4.055928539
39	3891423	1013.035768308	0.394750429
39	3897326	1014.569652512	1.533884204
39	3903660	1016.02560648	1.455953968
39	3912226	1018.0554316	2.02982512
39	3912455	1018.100659153	0.045227553
39	3920605	1020.055328958	1.954669805
39	3920862	1020.105365853	0.050036895
39	3921720	1020.314872814	0.209506961
39	3924482	1021.297692291	0.982819477
39	3925396	1021.690639664	0.392947373
39	3932036	1023.763419671	2.072780007
39	3935904	1024.90474837	1.141328699
39	3939269	1025.500178256	0.595429886
39	3944931	1026.906643313	1.406465057
39	3951757	1028.227241201	1.320597888
39	3959707	1030.201618321	1.97437712
39	3974736	1034.257907018	4.056288697
39	3976957	1034.90976757	0.651860552
39	3977083	1034.946491684	0.036724114
39	3980794	1035.863148087	0.916656403
39	3998099	1040.264068907	4.40092082
39	4002181	1041.677111951	1.413043044
39	4008730	1043.315849511	1.63873756
39	4009322	1043.42898679	0.113137279
39	4012737	1044.527723597	1.098736807
39	4025320	1047.933850422	3.406126825
39	4029107	1048.906704349	0.972853927
39	4037152	1051.041463312	2.134758963
39	4041086	1052.315036203	1.273572891
39	4064245	1058.004478473	5.68944227
39	4079279	1062.622120806	4.617642333
39	4093950	1066.834338714	4.212217908
39	4095638	1067.274868353	0.440529639
39	4100757	1068.493990547	1.219122194
39	4116349	1072.674257586	4.180267039
39	4123445	1074.522103107	1.847845521
39	4123686	1074.620198644	0.098095537
39	4124637	1074.944593722	0.324395078
39	4128713	1076.210900798	1.266307076
39	4130154	1076.607470922	0.396570124
39	4132896	1077.617449577	1.009978655
39	4134938	1078.191492319	0.574042742
39	4143612	1080.967194812	2.775702493
39	4144340	1081.177288543	0.210093731
39	4144663	1081.280139923	0.10285138
39	4144920	1081.338595574	0.058455651
39	4146929	1081.90818908	0.569593506
39	4162085	1085.785410534	3.877221454
39	4165689	1086.643988382	0.858577848
39	4169370	1087.559874158	0.915885776
39	4182093	1090.653693101	3.093818943
39	4189821	1092.393696879	1.740003778
39	4193410	1093.181290979	0.7875941
39	4207066	1096.750973942	3.569682963
39	4217746	1099.383810419	2.632836477
39	4218181	1099.509264349	0.12545393
39	4219816	1099.93902115	0.429756801
39	4223442	1100.840886313	0.901865163
39	4224881	1101.232165331	0.391279018
39	4238246	1104.759569184	3.527403853
39	4239858	1105.267701469	0.508132285
39	4252333	1108.858432404	3.590730935
39	4254150	1109.290749199	0.432316795
39	4258015	1110.130567548	0.839818349
39	4261915	1111.064333614	0.933766066
39	4270236	1113.038886359	1.974552745
39	4275697	1114.315391499	1.27650514
39	4284408	1116.295210396	1.979818897
39	4289606	1117.621031659	1.325821263
39	4296543	1119.529264749	1.90823309
39	4312206	1123.093729048	3.564464299
39	4313895	1123.618303652	0.524574604
39	4314191	1123.718851184	0.100547532
39	4329657	1127.84269071	4.123839526
39	4330856	1128.158060763	0.315370053
39	4338323	1129.969039573	1.81097881
39	4345351	1131.871982969	1.902943396
39	4345494	1131.914264792	0.042281823
39	4350106	1132.972258415	1.057993623
39	4352754	1133.663297792	0.691039377
39	4365663	1137.173439075	3.510141283
39	4371917	1138.997996702	1.824557627
39	4375897	1140.752465078	1.754468376
39	4379600	1142.605596771	1.853131693
39	4384369	1144.621545557	2.015948786
39	4384962	1144.998883792	0.377338235
39	4385952	1145.379267065	0.380383273
39	4391267	1147.238990848	1.859723783
39	4392294	1147.620128279	0.381137431
39	4395901	1148.928762407	1.308634128
40	495114	151.293688625	2805.392170487
40	496952	151.745589485	781.487744928
40	502728	152.959913406	1116.569618273
40	521603	156.79852947	309.708969307
40	522576	157.019838936	665.685575583
40	522894	157.104197936	1274.687584873
40	549319	162.718724577	619.486794155
40	553556	163.474070774	282.295892816
40	561917	165.146241638	1112.697359387
40	578062	168.402790772	605.350653192
40	578230	168.43027205	88.336503094
40	597497	172.881058437	3148.546469628
40	598686	173.286986438	521.239900914
40	607216	175.439328767	131.292596155
40	612312	176.830326573	51.719313784
40	618114	178.794505987	62.154145939
40	619630	179.385209116	523.792488651
40	629845	182.40481114	749.020010662
40	633395	183.557153735	160.991713951
40	638072	184.746016297	1052.184333771
40	641178	185.538613542	2890.947656259
40	645976	187.039082629	972.959801163
40	654736	189.963913191	1066.864941555
40	660540	191.807790382	626.962430292
40	661088	191.985046323	300.485876837
40	677075	197.109196567	532.390960406
40	677977	197.469392208	98.769751324