version 2
run ChordDht-1-20211202-14:24:15-10332
attr Lifetime 200s
attr configname ChordDht
attr datetime 20211202-14:24:15
attr experiment ChordDht
attr inifile configs.ini
attr iterationvars $Lifetime=200s
attr iterationvars2 "$Lifetime=200s, $repetition=0"
attr measurement $Lifetime=200s
attr network oversim.underlay.simpleunderlay.SimpleUnderlayNetwork
attr processid 10332
attr repetition 0
attr replication #0
attr resultdir results
attr runnumber 1
attr seedset 1

vector 7  SimpleUnderlayNetwork.globalObserver.globalStatistics  "GlobalNodeList: Number of nodes"  ETV
vector 8  SimpleUnderlayNetwork.globalObserver.globalStatistics  "GlobalDhtTestMap: Number of stored DHT entries"  ETV
vector 9  SimpleUnderlayNetwork.globalObserver.globalStatistics  "LifetimeChurn: Session Time"  ETV
vector 10  SimpleUnderlayNetwork.globalObserver.globalStatistics  "LifetimeChurn: Time between creates"  ETV
vector 11  SimpleUnderlayNetwork.globalObserver.globalStatistics  "LifetimeChurn: Time between deletes"  ETV
7	437038	150	519
7	573377	200	515
7	692188	250	527
7	820843	300	515
7	930172	350	506
7	1048742	400	511
7	1165091	450	513
7	1275881	500	533
7	1384613	550	521
7	1485124	600	538
7	1583496	650	523
7	1681990	700	516
7	1782841	750	523
7	1891577	800	520
7	1988465	850	520
7	2090967	900	531
7	2203915	950	528
7	2310222	1000	500
7	2412587	1050	490
7	2511899	1100	503
8	437039	150	638
8	467578	160	704
8	499322	170	776
8	524560	180	845
8	552176	190	905
8	573378	200	978
8	597501	210	1038
8	618852	220	1108
8	640217	230	1185
8	664329	240	1255
8	692189	250	1306
8	718934	260	1384
8	744244	270	1446
8	771311	280	1526
8	795280	290	1605
8	820844	300	1668
8	846021	310	1732
8	869871	320	1803
8	889909	330	1865
8	910718	340	1934
8	930173	350	2001
8	951537	360	2061
8	973886	370	2079
8	999399	380	2067
8	1024955	390	2038
8	1048743	400	2049
8	1074486	410	2048
8	1098963	420	2051
8	1120956	430	2083
8	1144525	440	2055
8	1165092	450	2058
8	1186098	460	2052
8	1208742	470	2047
8	1228950	480	2047
8	1251584	490	2055
8	1275882	500	2050
8	1297408	510	2061
8	1319694	520	2064
8	1342932	530	2057
8	1363850	540	2059
8	1384614	550	2074
8	1404842	560	2078
8	1426874	570	2097
8	1446225	580	2076
8	1466360	590	2058
8	1485125	600	2076
8	1505018	610	2090
8	1525331	620	2091
8	1545594	630	2089
8	1564783	640	2087
8	1583497	650	2078
8	1602763	660	2087
8	1623670	670	2088
8	1642660	680	2101
8	1663485	690	2112
8	1681991	700	2091
8	1703125	710	2086
8	1721714	720	2092
8	1740376	730	2090
8	1760819	740	2106
8	1782842	750	2090
8	1803762	760	2087
8	1825377	770	2087
8	1847212	780	2090
8	1871691	790	2093
8	1891578	800	2096
8	1912223	810	2099
8	1932888	820	2089
8	1951987	830	2093
8	1971583	840	2078
8	1988466	850	2081
8	2007709	860	2075
8	2027886	870	2066
8	2047178	880	2068
8	2067927	890	2085
8	2090968	900	2078
8	2115497	910	2065
8	2136619	920	2060
8	2160095	930	2083
8	2181906	940	2067
8	2203916	950	2082
8	2225082	960	2070
8	2244571	970	2064
8	2266693	980	2075
8	2289949	990	2072
8	2310223	1000	2098
8	2329638	1010	2092
8	2352008	1020	2074
8	2372316	1030	2066
8	2393407	1040	2067
8	2412588	1050	2061
8	2434141	1060	2084
8	2453150	1070	2076
8	2472896	1080	2064
8	2492364	1090	2064
8	2511900	1100	2069
8	2530515	1110	2048
8	2548306	1120	2043
8	2567915	1130	2030
8	2584361	1140	2022
9	440707	151.100997401	27.929619835
9	446371	152.720579655	52.014472051
9	447022	152.925677527	54.73244152
9	447115	152.950711979	576.568428862
9	449024	153.570686986	152.147040957
9	451806	154.337841865	69.146745438
9	452181	154.485869868	377.496390914
9	453087	154.78364364	959.659788599
9	453404	154.895951769	568.90099358
9	453748	154.968607996	0.57226158
9	456009	155.801772618	54.944649082
9	456512	155.986197448	155.984899673
9	457506	156.299918254	157.852500332
9	459793	157.264067093	809.007398343
9	461346	157.768614782	146.045009202
9	463056	158.419475226	64.052340105
9	463769	158.667875725	374.564733374
9	463826	158.680052157	199.128392954
9	463870	158.688682803	170.570656905
9	464592	158.913759364	293.665024376
9	464873	158.984332641	270.912264734
9	465831	159.327738417	179.820616282
9	468692	160.46190449	26.49864356
9	468769	160.492581936	717.971735983
9	469769	160.87240769	15.81244695
9	469789	160.875913078	20.947823197
9	471583	161.657756079	274.96933892
9	472221	161.939748913	122.121054713
9	472809	162.135878052	78.091305859
9	473849	162.412519578	123.192885879
9	474394	162.589390001	57.856664062
9	475034	162.781673986	86.937358003
9	476807	163.321347986	107.818944646
9	477951	163.688239075	507.706709889
9	481125	164.872639467	59.652363887
9	483061	165.544719338	248.511250822
9	484282	165.974224453	899.062176545
9	484785	166.104040804	101.747182588
9	489811	167.422339011	324.933076109
9	490159	167.501931857	90.724393605
9	490232	167.520733304	104.552552868
9	493699	168.626612647	149.77170433
9	493731	168.627932914	155.108599992
9	494005	168.728154341	151.301518578
9	494209	168.802872196	15.238928611
9	494717	168.957525709	179.83082246
9	495308	169.108747667	70.080104673
9	497369	169.712657322	515.740832367
9	497710	169.801451225	75.403666389
9	500665	170.198631025	14.177016466
9	501786	170.443797406	361.797409923
9	505713	171.607214223	70.288079212
9	505794	171.630155704	171.819587526
9	505989	171.696212074	824.781630294
9	506954	172.116559729	124.350109803
9	508017	172.535110543	209.481690064
9	508525	172.734493206	264.948060067
9	509433	173.068884229	4.351969139
9	509785	173.221203555	796.814140193
9	510998	173.819622196	57.881748037
9	511022	173.823164686	22.228526472
9	515567	175.680418021	340.221548472
9	515660	175.740190344	17.851536986
9	516260	176.127741647	54.565624215
9	516779	176.410581333	6.891695819
9	516887	176.458716169	176.03140251
9	517517	176.779156748	32.62662461
9	517693	176.829969344	159.119770996
9	518654	177.278686597	16.689577747
9	521253	178.42888499	72.630025568
9	521417	178.494557721	25.756610997
9	521951	178.739701706	84.422337204
9	523853	179.688684373	312.485601499
9	524490	179.973251733	74.681084601
9	524829	180.190158532	170.766070921
9	524904	180.239966731	78.848652778
9	525908	180.809497505	235.971662299
9	526123	180.892315575	42.877086501
9	530581	182.495835225	22.112272171
9	531759	183.093202653	242.483695389
9	531969	183.179402846	739.148399514
9	532601	183.450232966	97.462359767
9	532932	183.565770361	65.398259823
9	533846	183.792606689	151.982107692
9	533886	183.800604966	196.398188807
9	533924	183.811960549	32.599285399
9	534008	183.847438128	289.576981293
9	535976	184.498379228	83.769427419
9	536867	184.768355879	27.055419279
9	537796	185.044030928	360.25677797
9	540458	185.872364738	237.095747749
9	540552	185.926735789	50.413801278
9	540927	186.08734483	46.988259447
9	544095	187.334715023	185.736881445
9	546000	187.808699161	35.693607872
9	548225	188.595857611	88.941210306
9	548659	188.717819151	547.145283045
9	549074	188.876176001	144.739784762
9	549308	188.997714989	209.669812757
9	549702	189.130709916	88.658291355
9	550159	189.285001134	152.565206592
9	552284	190.038191201	101.896625377
9	553358	190.438423489	116.351077722
9	553381	190.445322421	3.647246159
9	553612	190.51857342	870.131116705
9	553667	190.53178566	229.817625033
9	554232	190.738461535	282.686140873
9	554620	190.939534455	97.747158806
9	554841	191.097049904	433.480202275
9	558637	192.803787433	17.02967269
9	558674	192.818148647	91.768125642
9	559951	193.452600807	115.300787416
9	560539	193.759348186	318.505025867
9	561151	194.027277781	157.259969426
9	562045	194.298059528	23.141224752
9	562925	194.62364282	592.109707714
9	563287	194.810642087	163.522947881
9	563367	194.842409603	520.130321259
9	563454	194.883690781	527.831419945
9	563689	195.031355103	77.434581396
9	564597	195.501422968	927.153103832
9	565164	195.822650677	238.775826873
9	565599	196.109241073	13.319916212
9	565747	196.178791165	238.421912793
9	565976	196.320177755	248.629201809
9	566057	196.382437099	9.056447261
9	568444	197.650354295	31.083627326
9	569471	198.378838234	114.956008778
9	571253	199.234204471	5.144021248
9	571567	199.365354106	11.652640897
9	572299	199.669355673	50.12012905
9	572589	199.756548704	172.850660551
9	573348	199.993784177	242.416432298
9	575989	200.956638824	10.067315082
9	576621	201.371647589	198.771023659
9	577362	201.828162205	191.173535633
9	578366	202.32232549	59.939718753
9	578686	202.368588008	58.119018158
9	579962	202.87594167	331.610843585
9	581007	203.25588572	10.910793003
9	581477	203.484242874	286.563117211
9	582061	203.718751496	391.490347796
9	583297	204.209359172	119.49846722
9	583614	204.287682605	19.593180882
9	584783	204.628901407	86.810361843
9	584934	204.683820787	241.206431308
9	584961	204.687936778	236.262513143
9	587571	205.868539493	48.188233698
9	587899	206.029389293	167.634571951
9	588148	206.164581403	139.661326142
9	588397	206.300396902	118.956592618
9	588863	206.547247891	82.926417017
9	589082	206.624968516	195.150068415
9	589386	206.725096594	567.825890236
9	592497	207.882161317	312.595148926
9	592776	207.962810581	987.474201539
9	594449	208.633926904	48.82676463
9	595050	208.954179149	7.980691406
9	595258	209.072409439	94.047099242
9	595822	209.245844988	27.586968818
9	595910	209.277865355	173.007607572
9	596868	209.746195738	192.829064461
9	597473	209.997203851	321.497380939
9	597834	210.165939564	25.420075454
9	599030	210.671797466	115.413019505
9	599079	210.680815734	338.923470676
9	599225	210.732305108	229.182457358
9	599562	210.910133369	22.678215914
9	600018	211.197195905	217.442769261
9	601561	212.018156748	147.691793538
9	601711	212.093778998	278.31396293
9	601905	212.177683716	2056.54656375
9	603050	212.808953348	37.251630932
9	603124	212.836609101	4.28614598
9	604663	213.601462275	122.204642201
9	605767	214.074256463	63.209324264
9	606447	214.414187347	118.160440859
9	606508	214.437157675	109.901416345
9	607673	214.799862318	166.786500198
9	607920	214.860375394	194.529559119
9	608841	215.263206065	664.380544841
9	612424	216.880344542	85.309794958
9	612481	216.901613241	10.967818744
9	613590	217.464191858	241.27917352
9	615664	218.381884343	259.047712415
9	617242	219.146270475	314.144108151
9	617726	219.387230168	133.571497654
9	618377	219.772156751	53.87805783
9	620693	220.694728653	804.763773214
9	621005	220.824858646	552.506702348
9	621039	220.837098868	551.621271683
9	621818	221.354341767	369.597160146
9	621880	221.383411281	58.429066866
9	623674	222.44308079	119.2936798
9	624627	222.937521271	357.216541736
9	625117	223.139035445	190.150569562
9	627486	224.148272028	558.43325703
9	627822	224.252675142	162.173435349
9	628123	224.342502372	444.307292999
9	628200	224.374956043	6.340161377
9	628442	224.469113702	115.283751608
9	629578	225.14424874	38.406546807
9	629961	225.437936039	65.21208935
9	630086	225.502740912	10.855384321
9	630870	225.865357315	195.457990769
9	630933	225.893151579	231.95508801
9	631084	225.958831136	2.250379921
9	631264	226.068541498	7.036589316
9	634050	227.468552218	243.829600696
9	634605	227.75453807	310.167051714
9	634693	227.79634106	72.518810853
9	636281	228.573709987	233.853523886
9	636386	228.60828882	757.551670486
9	637445	229.055687241	260.500115822
9	637863	229.214649365	224.461435997
9	640471	230.078107575	174.569764171
9	640868	230.203581723	352.209619682
9	641426	230.366801804	94.263318263
9	641724	230.46406934	120.531289692
9	641878	230.515147162	561.629145613
9	643456	231.112952301	170.08548772
9	643507	231.120856372	278.15759171
9	643525	231.121633863	541.217432657
9	644047	231.199591536	437.040118675
9	645943	231.875656553	338.681182666
9	650476	233.66495801	45.839297458
9	650600	233.735840918	426.447821722
9	650676	233.775205132	111.711141764
9	652179	234.610011057	42.082669724
9	654092	235.425087928	36.532705262
9	655530	235.82618112	191.779670671
9	656161	235.987693671	219.679766738
9	657060	236.326474231	55.512964311
9	657998	236.740204984	104.202434401
9	658638	237.069991739	475.88488929
9	658793	237.164866881	238.902558827
9	658921	237.228035498	198.141396548
9	659757	237.650443205	265.292139073
9	659987	237.7440347	60.470221929
9	660384	237.905568176	642.289556644
9	661919	238.672861877	16.558884321
9	662265	238.89923027	53.330324474
9	662410	238.972632289	64.512355989
9	663896	239.831017253	104.469535826
9	664206	239.952155622	384.987687824
9	664307	239.994125676	15.965272246
9	664659	240.138083673	208.570692796
9	664965	240.240946951	38.881796663
9	665426	240.382073847	14.261554772
9	668048	241.268585343	179.02127483
9	668756	241.593943087	51.161588891
9	670960	242.436160666	173.22996565
9	671629	242.762181677	378.376593576
9	672164	243.052062572	158.13197655
9	672756	243.299418623	60.821491966
9	673964	243.84095071	462.006978013
9	674272	243.966260778	87.344234804
9	674904	244.20451195	210.36032238
9	674957	244.21050988	230.760594958
9	675524	244.432154595	476.937918896
9	676689	244.805388038	8.041835278
9	676791	244.834769096	363.7897965
9	677812	245.191993827	90.799209913
9	678904	245.627895024	44.359786928
9	679523	245.825669405	405.340186158
9	680254	246.099511844	69.982222379
9	680443	246.175550238	81.742385235
9	680577	246.225373951	350.208352469
9	680618	246.236802995	269.207209125
9	680685	246.241888585	215.374102433
9	680766	246.278733277	326.827270156
9	682718	246.889499682	329.821759755
9	683644	247.193525706	181.074081579
9	684196	247.378541058	35.941833528
9	684294	247.423988817	103.955106294
9	687697	248.641667803	223.496454045
9	688125	248.787107647	100.136779999
9	688723	249.012714323	50.827837968
9	688869	249.039238131	6.81691584
9	692540	250.113831316	38.175479142
9	693049	250.26943268	36.311205132
9	693516	250.458116069	69.35449105
9	694281	250.743539235	46.428903302
9	694967	250.917819387	706.981955927
9	695245	250.994079037	66.566557768
9	696190	251.289551625	122.646268565
9	696881	251.496196183	399.02218655
9	697879	251.752188156	7.524321389
9	699952	252.336950287	101.080105292
9	700850	252.596580102	62.057479292
9	701086	252.693094514	221.641111889
9	701249	252.773242825	329.370141095
9	701809	253.040630517	17.973779169
9	703298	253.617988785	116.947500384
9	710286	256.206619178	298.906731199
9	712303	257.175752013	187.456720864
9	712701	257.36571253	2.434104505
9	713814	257.858210572	676.199270275
9	714092	257.998110791	216.323014922
9	716279	258.92213635	170.472001684
9	716607	259.088651136	51.495547331
9	717076	259.265644037	154.326273902
9	717473	259.462447872	11.873029566
9	717944	259.651799874	18.970072262
9	718569	259.855334409	111.312303058
9	718889	259.983455393	18.164008981
9	719426	260.192057551	363.451176887
9	719477	260.213614479	177.524781068
9	720378	260.568310596	423.128644773
9	720543	260.627068895	38.156054205
9	721727	261.183205034	191.976384319
9	724427	262.25454966	41.899301716
9	724644	262.331703451	175.178733622
9	725084	262.507353348	148.576467433
9	725220	262.579150434	388.566471576
9	725479	262.729218187	313.775883937
9	728598	264.083605188	482.728239702
9	729708	264.5393271	110.83930109
9	730069	264.688524883	77.532244203
9	730600	264.86076153	149.857541379
9	731974	265.382933512	161.232732527
9	732312	265.477614181	344.402483185
9	734150	266.186003028	103.625757901
9	735208	266.715976636	71.906368742
9	736942	267.45531248	610.99843828
9	738678	268.006628303	9.281203955
9	739202	268.189881658	10.604480823
9	740878	268.843080345	326.782850109
9	743420	269.763079698	113.562686394
9	747179	270.913509704	337.205311443
9	747525	271.004518913	111.448145291
9	748383	271.233249745	146.896228909
9	748964	271.406709776	52.663835743
9	749899	271.664659327	14.043066229
9	752745	272.818480412	34.239779098
9	755001	273.789265768	419.723216037
9	759561	275.055652753	68.328025475
9	762059	276.012470253	15.976057611
9	762748	276.23366896	31.943984588
9	764301	276.875023884	436.948078156
9	764494	276.940632586	197.880509755
9	765526	277.305725062	10.197829197
9	765636	277.347367417	53.967863685
9	767440	277.998344567	50.847777618
9	768131	278.35726477	100.711400486
9	769725	279.426333662	549.348316332
9	771776	280.096414474	89.475953312
9	773212	280.674852736	227.363692578
9	774321	281.291224913	152.40993041
9	776707	282.347672818	537.56737674
9	776893	282.42368777	0.772613066
9	777077	282.53803122	481.862259472
9	777326	282.704931387	205.160071122
9	778366	283.024855855	192.735999034
9	781533	284.285223673	321.664244344
9	782243	284.693956141	370.623835625
9	782514	284.814475326	148.173006333
9	782532	284.816092597	356.392629389
9	784542	285.76508313	6.703248692
9	784672	285.848029336	104.664453958
9	785369	286.238246413	137.548039194
9	785733	286.388809466	131.370848644
9	785833	286.434378788	76.453868532
9	789379	287.824194943	46.215238227
9	791486	288.586436078	338.830107693
9	791599	288.623673726	82.182569295
9	792609	289.007914538	64.477862127
9	792750	289.057006715	164.947566527
9	794900	289.897441815	183.80694278
9	796997	290.543506003	634.685381848
9	797279	290.633533413	60.485783294
9	797534	290.71726265	67.255808667
9	799285	291.412402081	38.536507744
9	800880	291.935269173	240.221926192
9	802238	292.599616177	151.203244081
9	802281	292.620941885	239.546999442
9	804070	293.153071829	257.011086796
9	804088	293.154655646	218.452150483
9	804435	293.271795347	87.075586317
9	804632	293.399273313	192.823423735
9	805492	293.773630187	14.26344298
9	805753	293.859390997	163.698460238
9	807907	294.668430412	367.834128368
9	808374	294.870347919	21.232446731
9	808599	294.97670108	51.57837394
9	808786	295.064072889	521.586984331
9	808849	295.085295745	197.157961536
9	809797	295.486669332	149.653386373
9	809925	295.528317252	26.715988942
9	810408	295.732760381	34.112638135
9	812726	296.559094326	212.900710546
9	812820	296.594996692	36.944903447
9	812914	296.61365486	224.488487641
9	815063	297.265912445	333.743849618
9	816052	297.806528589	245.515686066
9	816755	298.154337064	268.08811081
9	817046	298.308992364	58.958976904
9	819923	299.604755036	16.535022624
9	820770	299.971057877	387.450795245
9	821370	300.234001631	48.876910673
9	821387	300.236299053	259.531913874
9	823995	301.413527042	28.46363702
9	824309	301.550633404	493.667302566
9	824759	301.717974479	246.760874698
9	824804	301.735442235	322.633538251
9	827123	302.748043946	157.412845988
9	827235	302.819651146	95.469406636
9	827409	302.922541462	172.632435989
9	827464	302.94767599	30.714831986
9	830987	304.174733717	1.84564543
9	832829	304.992567092	409.712531639
9	833189	305.133619468	9.974063712
9	833515	305.319579474	8.160862197
9	833832	305.428196311	152.075741801
9	834600	305.786670374	12.015778485
9	835151	306.06611357	95.865595871
9	835272	306.117008173	123.248994529
9	836340	306.522052107	116.376191278
9	837375	306.918913129	453.475646557
9	837416	306.924500494	212.773704923
9	840008	307.654014706	151.846626747
9	840277	307.748075147	80.958503493
9	842080	308.464031157	77.304724404
9	842238	308.536120472	60.835241593
9	842353	308.558960359	63.314370959
9	842380	308.560656566	58.773541584
9	845361	309.81423391	303.935799105
9	845717	309.904358941	431.410032459
9	846546	310.265973086	58.564314762
9	846797	310.374675042	443.043066761
9	847547	310.780341384	482.244804734
9	847889	311.046189388	282.520587754
9	852469	312.934182251	297.369950179
9	854330	313.844222897	284.392154788
9	854728	314.046696076	467.119172409
9	855217	314.28498274	749.989189909
9	856068	314.707497498	22.902889697
9	856766	314.993798145	652.839093922
9	856851	315.013613724	145.39645066
9	857577	315.280773707	101.697423895
9	857635	315.303388726	160.538664941
9	857800	315.342521405	194.932692506
9	858611	315.614780195	30.846351779
9	858763	315.654882215	260.39920173
9	860496	316.220826393	40.262160434
9	861249	316.404012343	14.58585872
9	862733	316.958266983	122.471821619
9	863566	317.20812877	136.657080836
9	864693	317.663955162	17.06450327
9	864748	317.682090561	9.2681688
9	864942	317.766171047	90.630268267
9	865450	317.935994788	266.29955887
9	866091	318.220928289	197.058618106
9	866114	318.224337891	95.984903356
9	866172	318.249734977	21.470364407
9	866349	318.331502543	942.650071464
9	866511	318.405541231	453.985792404
9	867196	318.753175282	1102.544591184
9	868780	319.474387544	175.462002182
9	872818	321.333189593	284.626916838
9	873380	321.552908569	29.499580057
9	874079	321.856369274	54.039843576
9	874109	321.872727488	206.712403137
9	875648	322.654247232	59.528156034
9	877020	323.550671951	248.350479001
9	877655	324.049099184	20.240724194
9	879497	325.255144853	87.934256136
9	879676	325.380786257	23.548988155
9	879825	325.450960479	101.280476125
9	880409	325.814749649	1.419490459
9	881586	326.557995336	360.691447983
9	881623	326.574148953	14.947302793
9	882445	327.060835471	3.241205239
9	882479	327.068515664	106.37329405
9	882939	327.279294682	51.951447347
9	885426	328.132622636	2.160915189
9	885466	328.145605214	36.873032967
9	886896	328.721655687	41.444244779
9	887361	328.956596944	94.602049603
9	888190	329.342884582	216.372056851
9	888887	329.685191082	84.289472804
9	889086	329.730607595	391.554650849
9	889736	329.935588083	180.698167505
9	889934	330.015290833	334.071612601
9	891084	330.644428334	107.961730124
9	892701	331.366512957	7.4302692
9	892740	331.376552726	105.108661999
9	893068	331.518206068	30.759269325
9	893412	331.677772855	52.367209876
9	893474	331.698595081	354.656408865
9	894847	332.593988985	20.602783009
9	897217	333.643868534	85.536637041
9	897495	333.814474571	109.578524321
9	897999	334.063695267	27.768952882
9	902085	335.95708483	357.019538635
9	904966	336.995022462	20.479241103
9	905167	337.123078147	41.376447095
9	906311	337.778943284	13.984364021
9	906531	337.899936064	91.456506984
9	906988	338.069854224	59.686351068
9	907220	338.135797095	85.817897418
9	907589	338.314668284	63.6968568
9	907878	338.485100106	260.773074039
9	908586	338.765213589	169.990714829
9	908665	338.788719774	619.814348644
9	909562	339.199679891	260.76082415
9	909683	339.287504684	478.360096766
9	912723	341.00683443	81.218893822
9	913004	341.156637645	35.979779035
9	913173	341.256926603	87.905017264
9	913249	341.299362659	171.924495037
9	914577	341.947784698	41.687476878
9	914632	341.974790154	678.560695994
9	914666	341.982534057	50.613721214
9	914934	342.121489483	12.248210766
9	916199	342.658863645	16.457605284
9	916799	342.920094557	176.816817889
9	917483	343.150638274	18.78098608
9	918145	343.438537372	207.623291949
9	918688	343.669385707	162.009268134
9	922570	345.677618169	16.022842271
9	923318	346.182252653	439.046723476
9	923625	346.415230857	746.303548267
9	924091	346.749144228	130.395503401
9	924853	347.266512576	191.299332479
9	925441	347.625317311	256.780095161
9	927418	348.596006675	42.586302612
9	927623	348.64673793	398.002720089
9	927989	348.834516423	1.798384629
9	929156	349.496294525	61.041249892
9	929908	349.90495955	309.223837084
9	931354	350.668658581	448.461409004
9	931503	350.755932199	51.753507951
9	934239	351.852190684	37.95640991
9	934741	352.004592218	153.912763306
9	936722	352.80891371	208.139413594
9	937153	353.018655752	25.267343345
9	938482	353.778560751	30.671700331
9	940149	354.963576155	97.874554412
9	940637	355.200089518	52.615709514
9	941124	355.484293648	28.331930037
9	943559	356.490144241	174.20304876
9	944084	356.673208116	90.985206816
9	944452	356.810550375	3.770152784
9	944861	357.021998986	43.67428438
9	945416	357.168577239	828.62141558
9	945740	357.24731646	149.226049556
9	945833	357.271178138	111.311566355
9	945872	357.281389948	14.265400218
9	946332	357.529158364	185.548355248
9	947431	358.044045797	175.440585718
9	947561	358.098941888	384.924351079
9	947781	358.180638604	48.481462992
9	947992	358.310740606	274.962210634
9	948414	358.507533601	752.368701826
9	948846	358.65937416	46.913350706
9	949337	358.908717281	46.110710174
9	950088	359.247063444	24.376127096
9	950362	359.400546392	77.677725755
9	950638	359.54014357	438.560100605
9	951158	359.836403663	405.243887045
9	951238	359.86602375	60.09164106
9	952863	360.533083386	316.714362852
9	953272	360.687858051	191.270453229
9	953724	360.914800041	150.840946533
9	954304	361.168496362	1087.823660499
9	955771	361.751717968	177.936253613
9	956054	361.85205514	87.128632396
9	956746	362.158463133	92.785193938
9	957505	362.665311785	19.995113013
9	959069	363.286864636	108.837466519
9	959151	363.330422541	8.135217902
9	960165	363.912594361	169.440894375
9	960223	363.953160196	16.217264633
9	960485	364.168561528	60.619409935
9	963346	365.75344873	375.723788557
9	964060	366.068808636	0.107284207
9	964315	366.21544585	243.983912326
9	967627	367.523711173	62.231590801
9	967885	367.678425932	57.936861314
9	968632	368.04783761	31.254113441
9	969188	368.245769246	260.098871717
9	971207	369.053981577	130.925873266
9	971389	369.078639218	20.778924573
9	971846	369.20887354	72.111788642
9	973246	369.747978899	341.826722929
9	978131	371.834948833	100.988888306
9	978178	371.842876163	3.727534754
9	981140	372.79011237	258.136298519
9	981925	373.039641758	19.46331299
9	984215	373.967776273	12.394706072
9	984633	374.07780315	144.157211525
9	984788	374.11704724	563.849551739
9	985641	374.339887233	247.516489624
9	986173	374.526013717	9.387935774
9	987685	375.060717023	226.079390124
9	988020	375.190068288	219.058577107
9	991905	376.609908771	186.41184985
9	992147	376.699574644	20.032103296
9	994344	377.963891044	19.544221092
9	994970	378.262235758	305.606420279
9	995357	378.480647661	212.387085396
9	995675	378.590166713	203.41861902
9	995935	378.688067627	549.736556032
9	996884	379.087500873	241.329230358
9	997021	379.122054245	252.738618449
9	997156	379.157207128	114.576757711
9	997888	379.41891205	445.376577192
9	998666	379.752245556	384.292764757
9	998684	379.752879225	76.983998867
9	1001583	380.85208036	313.702171888
9	1003050	381.411382294	174.256069618
9	1004469	382.058017442	14.432003184
9	1005350	382.336389546	377.337311556
9	1005365	382.337066557	146.296223487
9	1006787	382.953249419	178.282127709
9	1007449	383.284491208	162.378106139
9	1008695	383.879019136	769.974282893
9	1008923	384.019740246	125.363256763
9	1008986	384.039785565	294.152784065
9	1010662	384.803077938	257.493938213
9	1014853	386.071061489	4.46582318
9	1015302	386.268820939	133.240730491
9	1015693	386.507116716	593.517485162
9	1016016	386.669709865	250.588783767
9	1016439	386.827943512	108.528496382
9	1017073	387.06861443	61.860959149
9	1017593	387.29340458	442.378622617
9	1018482	387.575268305	6.318170295
9	1018771	387.677042783	489.034258248
9	1019222	387.847127784	107.248004438
9	1019511	387.980765904	325.691884596
9	1020889	388.542857006	69.952408831
9	1022261	388.913027106	153.861039544
9	1023486	389.3961424	124.358911023
9	1024216	389.747330418	179.234961484
9	1026541	390.577995142	252.969372396
9	1026910	390.663198394	49.964025041
9	1028746	391.234882619	123.230933695
9	1028869	391.273940719	130.225862442
9	1029168	391.390942587	53.028747046
9	1031325	392.257829541	258.392515354
9	1031705	392.520897963	74.631787285
9	1032111	392.732037554	96.1903359
9	1032652	393.000122314	120.689698999
9	1034085	393.790855607	540.607369282
9	1034521	394.005494918	143.912395161
9	1036587	394.951732221	73.411715098
9	1036796	395.025173153	10.882220365
9	1038004	395.61437626	691.124470645
9	1038924	396.016267646	2.136963997
9	1038971	396.036644186	14.953725943
9	1039467	396.248375418	27.09657033
9	1041659	397.080315945	91.674699049
9	1043141	397.768263775	41.097267339
9	1043976	398.173140283	100.168401456
9	1047167	399.348036778	363.469062848
9	1047967	399.749023198	72.28321541
9	1048444	399.907735881	456.981601314
9	1049289	400.252678363	147.295762963
9	1049405	400.31788431	24.617759349
9	1049546	400.384557027	511.042426398
9	1049634	400.434461822	5.425209513
9	1050845	401.10145133	407.583066648
9	1051032	401.18177334	56.74537678
9	1052966	402.03857062	452.96957118
9	1055076	402.99915174	563.956713113
9	1055140	403.038086196	34.337103228
9	1056972	403.805714299	36.560871185
9	1060131	404.871112841	509.603016102
9	1062898	406.324857484	155.687784609
9	1069043	408.40395128	112.834738728
9	1070721	408.908152778	433.713355175
9	1072272	409.385536747	41.340624901
9	1072351	409.402979126	35.976571431
9	1072911	409.596014262	512.601548905
9	1074420	409.986585062	106.181328266
9	1074791	410.068354161	554.092671476
9	1075112	410.166126134	112.97107898
9	1080918	412.533889226	95.880983757
9	1081857	412.905407643	89.922282547
9	1082198	413.028174814	66.93310564
9	1082404	413.106553937	940.239918565
9	1084863	414.00458993	243.141150887
9	1085304	414.101951839	184.111506617
9	1085354	414.11388097	318.47543892
9	1086083	414.330763856	346.233116919
9	1088899	415.6503164	219.581153338
9	1089424	415.873550968	177.09910453
9	1089870	416.073297913	148.749324866
9	1091292	416.88650466	109.694132092
9	1092750	417.462663929	0.296267262
9	1092827	417.496322128	46.726975277
9	1092847	417.502436041	96.239036836
9	1093838	418.044378643	4.014796854
9	1094359	418.301935628	149.640000923
9	1095242	418.678244879	97.569808837
9	1096302	419.030593498	10.177285448
9	1096408	419.054787327	729.152639727
9	1098508	419.765124685	47.930668558
9	1098862	419.94798606	42.432767481
9	1099159	420.137389151	128.289151237
9	1100411	420.825537508	403.157672686
9	1101289	421.100933348	528.195914853
9	1101878	421.3753841	18.558248015
9	1102120	421.533931717	56.145176903
9	1102603	421.812848618	27.264998138
9	1103384	422.256563222	374.80620785
9	1103921	422.468521738	486.206553052
9	1104310	422.639055236	227.598227636
9	1104603	422.788167956	3.29111866
9	1104681	422.819832507	61.914557756
9	1105250	423.06867671	42.400516087
9	1106616	423.603914078	9.096169739
9	1107529	423.967751528	480.783962959
9	1108288	424.231456484	174.644767405
9	1108345	424.25354813	153.548512775
9	1108597	424.347642221	436.459340671
9	1109658	424.898418055	36.618825831
9	1110593	425.343262909	418.551933513
9	1110936	425.492601296	50.988760797
9	1112077	426.089551184	44.488624669
9	1112854	426.511788098	102.743058324
9	1115737	427.988659013	2.91714646
9	1116794	428.40744066	65.284240286
9	1117699	428.667398701	119.791920326
9	1118654	429.000925742	298.139975048
9	1119248	429.331400993	200.042925394
9	1119374	429.38385709	13.128829817
9	1120354	429.790583605	22.922751539
9	1120762	429.939834294	148.850871784
9	1121391	430.14147731	74.433603588
9	1121742	430.211471884	52.167443243