version 2
run ChordDht-7-20211202-15:39:44-10332
attr Lifetime 800s
attr configname ChordDht
attr datetime 20211202-15:39:44
attr experiment ChordDht
attr inifile configs.ini
attr iterationvars $Lifetime=800s
attr iterationvars2 "$Lifetime=800s, $repetition=0"
attr measurement $Lifetime=800s
attr network oversim.underlay.simpleunderlay.SimpleUnderlayNetwork
attr processid 10332
attr repetition 0
attr replication #0
attr resultdir results
attr runnumber 7
attr seedset 7

vector 43  SimpleUnderlayNetwork.globalObserver.globalStatistics  "GlobalNodeList: Number of nodes"  ETV
vector 44  SimpleUnderlayNetwork.globalObserver.globalStatistics  "GlobalDhtTestMap: Number of stored DHT entries"  ETV
vector 45  SimpleUnderlayNetwork.globalObserver.globalStatistics  "LifetimeChurn: Session Time"  ETV
vector 46  SimpleUnderlayNetwork.globalObserver.globalStatistics  "LifetimeChurn: Time between creates"  ETV
vector 47  SimpleUnderlayNetwork.globalObserver.globalStatistics  "LifetimeChurn: Time between deletes"  ETV
43	482728	150	492
43	658810	200	478
43	814600	250	490
43	1036299	300	502
43	1190651	350	495
43	1399390	400	484
43	1569607	450	484
43	1745270	500	483
43	1946727	550	485
43	2124588	600	501
43	2358041	650	505
43	2533447	700	494
43	2731703	750	489
43	2928582	800	492
43	3101460	850	493
43	3313006	900	494
43	3493028	950	492
43	3696681	1000	488
43	3892202	1050	493
43	4070311	1100	492
44	482729	150	742
44	528590	160	822
44	573326	170	885
44	603392	180	951
44	631606	190	1011
44	658811	200	1109
44	684857	210	1191
44	715491	220	1280
44	744500	230	1337
44	772504	240	1412
44	814601	250	1471
44	863382	260	1571
44	912013	270	1636
44	957822	280	1736
44	1004194	290	1815
44	1036300	300	1877
44	1068884	310	1944
44	1101303	320	2021
44	1131282	330	2117
44	1162167	340	2192
44	1190652	350	2270
44	1220119	360	2333
44	1263500	370	2329
44	1308193	380	2295
44	1354057	390	2303
44	1399391	400	2293
44	1442426	410	2293
44	1475310	420	2319
44	1508394	430	2337
44	1540582	440	2294
44	1569608	450	2295
44	1602230	460	2285
44	1633226	470	2302
44	1663778	480	2313
44	1702963	490	2338
44	1745271	500	2310
44	1792882	510	2302
44	1840673	520	2292
44	1883670	530	2314
44	1915643	540	2313
44	1946728	550	2333
44	1982036	560	2315
44	2014430	570	2332
44	2053613	580	2313
44	2087158	590	2304
44	2124589	600	2322
44	2162892	610	2323
44	2210442	620	2323
44	2260941	630	2317
44	2314177	640	2327
44	2358042	650	2317
44	2391516	660	2300
44	2427868	670	2325
44	2464385	680	2328
44	2498042	690	2330
44	2533448	700	2331
44	2568289	710	2329
44	2602289	720	2321
44	2641198	730	2318
44	2685939	740	2342
44	2731704	750	2337
44	2778556	760	2356
44	2824212	770	2345
44	2857257	780	2329
44	2891148	790	2322
44	2928583	800	2334
44	2965862	810	2336
44	2999001	820	2338
44	3030552	830	2343
44	3061663	840	2334
44	3101461	850	2336
44	3146847	860	2334
44	3193710	870	2346
44	3236090	880	2351
44	3276967	890	2346
44	3313007	900	2337
44	3351604	910	2350
44	3385417	920	2343
44	3422178	930	2340
44	3460244	940	2347
44	3493029	950	2342
44	3527560	960	2353
44	3565389	970	2338
44	3607777	980	2344
44	3653529	990	2332
44	3696682	1000	2339
44	3740284	1010	2329
44	3778193	1020	2341
44	3816997	1030	2341
44	3853298	1040	2328
44	3892203	1050	2329
44	3925023	1060	2317
44	3959903	1070	2318
44	3992407	1080	2339
44	4030322	1090	2343
44	4070312	1100	2333
44	4110153	1110	2348
44	4151512	1120	2341
44	4196554	1130	2336
44	4227072	1140	2323
45	490491	151.847610553	677.96886828
45	492789	152.265552206	2927.10439539
45	502344	154.138052128	23.873659528
45	514288	156.505009246	615.741530409
45	515045	156.682518225	481.659353459
45	529699	160.278312472	1881.396563594
45	530830	160.543595574	1064.886393759
45	532438	160.91236071	134.268740991
45	542794	163.161441746	1099.009107489
45	554867	165.860254414	879.510049004
45	568904	169.060316743	792.56906956
45	593841	176.668394966	1605.74900734
45	598456	178.291561695	61.66699156
45	599152	178.53335304	2186.843290141
45	604471	180.302129102	1151.464016088
45	606036	180.987224486	2915.997247888
45	613281	183.721598858	887.895486717
45	621610	186.846726399	1781.123645359
45	625022	188.083305426	783.119665749
45	634678	191.225691268	578.04194318
45	643728	194.236531616	181.116519486
45	645107	194.782252964	528.202239986
45	660754	200.693618388	1458.944817993
45	663261	201.775233528	2205.810390206
45	664046	202.03176884	1226.925017265
45	664446	202.159492873	691.721326749
45	666918	202.979507309	209.406557175
45	678571	207.557167272	1510.237686304
45	681492	208.688840825	1360.736013362
45	688364	211.272505544	358.005894174
45	688797	211.453001248	852.929861934
45	695472	213.551472194	1145.317100911
45	700637	215.165356912	1227.705096201
45	701203	215.348864633	644.947867978
45	702949	215.938678339	149.388943752
45	705991	216.987794674	219.418961114
45	708924	217.808364187	664.386307174
45	711985	218.954921377	61.092973297
45	712292	219.097994276	1000.212190375
45	715432	219.991843587	249.383013074
45	717609	220.72372362	334.622666348
45	720689	221.805313356	415.844489255
45	722332	222.378602444	527.34116068
45	723874	222.941327449	111.770306107
45	731179	225.326235278	1146.414499174
45	736487	227.143051124	1754.647243098
45	743422	229.66501657	370.623893165
45	745287	230.248968197	314.063633594
45	752431	232.538532686	1826.907547543
45	759036	234.825522367	2547.385404302
45	771628	239.72800745	1363.739240701
45	774935	240.595775631	371.257807379
45	785325	242.95386383	191.283556677
45	793861	245.086079941	395.024577085
45	806219	248.002425253	381.876059401
45	806608	248.105811588	681.024849269
45	806968	248.185502021	78.411125335
45	807023	248.199553365	1446.015811381
45	811640	249.276523715	247.284607518
45	818787	250.814388625	194.463387431
45	821127	251.316935351	1970.552075993
45	823121	251.741934693	1352.044186183
45	827147	252.483995747	2404.483083598
45	848498	257.050609376	140.98936564
45	861035	259.539385922	1338.424236969
45	877096	263.018118154	426.729047274
45	883919	264.622885486	640.681411366
45	885817	265.054985985	1731.235932248
45	890154	265.861777611	4.526346216
45	893743	266.627810735	1149.856554808
45	895830	267.021233105	1084.399335786
45	896712	267.275634012	148.327026653
45	900589	267.988876636	145.049289489
45	916899	271.169789028	921.815773124
45	917244	271.238535972	2990.920472078
45	917427	271.287673777	1168.474428134
45	923835	272.610475684	2089.606114041
45	925911	273.132763736	56.639077492
45	938244	275.294812764	1501.494134715
45	938615	275.373942024	1982.259339489
45	941522	276.057097365	85.443743924
45	957149	279.845129186	284.002020088
45	970645	283.016871211	202.509886524
45	971308	283.19385643	78.811484849
45	972208	283.40513283	1292.104136262
45	979081	284.919231909	93.162320006
45	989416	287.130972982	1778.005930783
45	999652	289.206768352	735.774888734
45	1003136	289.892922314	338.822058564
45	1009923	291.270072934	921.998414837
45	1010069	291.314649395	1969.436238628
45	1012396	291.949041825	721.485788835
45	1012780	292.159552382	313.443973594
45	1021580	294.665833806	65.199973421
45	1025084	295.855573086	1187.551994675
45	1026270	296.218162258	142.792759774
45	1031951	298.069449106	1555.570882914
45	1032549	298.274851638	423.502811598
45	1035683	299.761383439	584.130403051
45	1045794	303.298297637	2298.168097153
45	1045855	303.308139471	297.424558794
45	1049134	304.178622651	2487.720347203
45	1049216	304.194124793	1341.996039057
45	1049409	304.248520821	77.721486754
45	1049720	304.325853981	210.397652868
45	1052291	305.095760379	300.724674583
45	1064896	308.72166496	216.854986212
45	1071135	310.641442244	140.790580255
45	1072143	311.029765702	533.514890278
45	1078012	312.686860312	2771.105031321
45	1081284	313.547644295	236.726735784
45	1092059	317.149662388	266.040995473
45	1092982	317.479619259	1716.972656906
45	1094087	317.847639291	340.549970004
45	1094551	317.992072948	814.508882601
45	1101699	320.212728262	2660.113434519
45	1110979	323.200275341	34.013250056
45	1111349	323.285865547	524.56595089
45	1120823	326.240878935	277.654654727
45	1123665	327.254158427	47.289406035
45	1133576	330.979377853	1316.281409218
45	1133595	330.986937052	137.398445406
45	1136629	331.901580788	494.290213646
45	1139117	332.579284494	2642.060696697
45	1140680	333.244148908	305.888913593
45	1161073	339.676663416	503.531771614
45	1167827	341.935359098	109.04994889
45	1183950	347.641987705	389.339483631
45	1194663	351.530556731	247.226018166
45	1211118	356.906513619	234.18408516
45	1224889	361.166911462	237.70721338
45	1228351	362.141772848	316.308220712
45	1233862	363.410510199	204.877413358
45	1237776	364.359769794	1617.831465781
45	1240976	365.282101106	155.983778848
45	1252222	367.557338687	854.902915927
45	1258018	368.845319477	617.808533035
45	1285915	374.87557473	996.743917922
45	1296505	377.291675569	3589.060028624
45	1296613	377.316922867	344.121254836
45	1305168	379.206710775	831.05505569
45	1317924	381.9253775	1842.52305909
45	1320462	382.569335496	144.961137184
45	1332564	385.317856164	807.439228422
45	1341383	387.340308224	381.646696898
45	1355263	390.276369364	1571.514848923
45	1357233	390.72344009	1589.685041884
45	1365369	392.520437099	139.661676189
45	1372069	393.748904627	769.644112671
45	1373243	393.986395567	1017.583750765
45	1377053	394.705858134	1254.723775092
45	1384323	396.299410115	787.671591347
45	1413995	403.552448308	425.907748805
45	1418775	404.814678404	1010.587084229
45	1427042	406.604656004	194.645609136
45	1428502	406.894446706	7.566626132
45	1430712	407.329720528	524.274659981
45	1434432	408.215097594	166.647958486
45	1459086	415.317481214	596.187698709
45	1460175	415.702701784	284.349357088
45	1462383	416.277439892	301.454964362
45	1477302	420.740124123	148.755328238
45	1481377	422.102279126	58.413845575
45	1483572	422.927781127	33.204290831
45	1484523	423.244152828	285.422075993
45	1490314	424.65505619	610.324614232
45	1491891	425.054965076	195.579218185
45	1497202	426.515198586	908.869309262
45	1497603	426.649716489	247.261362823
45	1499192	427.196334846	3914.450126119
45	1510431	430.723698925	279.416300272
45	1512055	431.285349873	381.852092962
45	1517582	432.564654409	279.287955425
45	1518375	432.749746657	587.069560097
45	1521378	433.643928545	321.384768747
45	1527923	435.621656008	279.224604838
45	1532057	437.096437341	391.083405962
45	1534791	438.121563947	418.331562424
45	1540746	440.077005007	825.502921964
45	1547572	442.406203882	795.716008178
45	1567196	449.105793853	1853.175480554
45	1569327	449.891861882	284.638748395
45	1585310	454.906403051	313.754263454
45	1586082	455.183179502	193.680462211
45	1586163	455.210157755	349.774290137
45	1587266	455.574017583	1195.041483974
45	1592799	457.192822173	253.518699749
45	1595731	457.925930213	2770.496773749
45	1599689	459.112511104	1917.802056697
45	1613246	463.540116295	748.727040596
45	1617301	464.897776281	814.621757984
45	1617640	464.998828299	420.484110428
45	1631954	469.637717241	664.100534298
45	1652306	476.410798568	1044.39437544
45	1652401	476.447947978	101.788917859
45	1659742	478.758837822	239.950317084
45	1661441	479.279307499	221.367606034
45	1670494	481.528530185	19.661773597
45	1682279	484.904925981	1216.499198857
45	1689752	486.694504071	247.287987726
45	1695021	488.1856135	131.996766888
45	1698881	488.999788626	849.716660282
45	1708932	491.365791568	10.01709167
45	1729362	496.480312625	514.320275906
45	1730187	496.66066835	188.091193197
45	1731787	497.076284002	637.146857781
45	1737296	498.195003098	955.660495157
45	1746029	500.206606736	118.705445868
45	1752251	501.418864721	11.874356961
45	1755062	502.261559124	2315.69816933
45	1771324	505.300985082	770.256738038
45	1775443	506.1222982	752.02965139
45	1776002	506.247439857	697.247131319
45	1776893	506.453098029	491.251327162
45	1785969	508.48254367	1311.191714255
45	1794889	510.589715998	231.44984612
45	1798896	511.569197166	605.708032684
45	1799296	511.66730008	717.181546561
45	1835851	518.605347864	249.759714315
45	1842264	520.265573463	218.258829441
45	1850367	522.455667747	414.384861383
45	1852699	522.996433641	1081.41450218
45	1853284	523.116555865	147.399487199
45	1860864	524.79261382	448.333447807
45	1864059	525.540674384	238.675885917
45	1866668	526.070945193	172.542612052
45	1875651	527.954915707	4437.817741732
45	1876460	528.168326877	714.133111909
45	1892186	532.415494542	69.761637645
45	1921124	541.638193128	753.835857914
45	1925785	542.956123833	223.90378481
45	1926203	543.116050065	1900.267489332
45	1926800	543.330589522	843.564935142
45	1939644	547.608702075	398.066364983
45	1945014	549.432036975	626.89946103
45	1948612	550.634827388	273.662195282
45	1967584	556.112796711	443.290058304
45	1970302	557.015607405	649.532205381
45	1982412	560.113864737	384.429041255
45	1984858	560.530805122	283.718093015
45	2001066	565.904387978	923.779056118
45	2003502	566.698547334	397.984249007
45	2006971	567.864303212	439.69087055
45	2011684	569.029544653	374.677341685
45	2012021	569.127799144	811.748406899
45	2012113	569.152907091	2416.812936712
45	2015940	570.655061851	1582.382864047
45	2016621	570.908455643	750.566526198
45	2017589	571.141656127	56.329661099
45	2019123	571.639607131	471.902251052
45	2030034	573.501915258	192.625315193
45	2038845	576.337035212	599.578865662
45	2040110	576.706649471	2122.693429332
45	2046947	578.40453236	357.500885678
45	2049289	578.966042137	130.839367037
45	2055192	580.462740046	1613.93158886
45	2060406	582.153636992	1283.14237228
45	2061705	582.543510503	28.723541636
45	2062374	582.789082816	653.631887996
45	2062677	582.876932231	634.92214222
45	2067229	584.263746111	66.667471351
45	2069698	584.9013673	544.287757461
45	2073889	586.380820678	315.788115841
45	2080065	587.817714382	59.342592695
45	2082772	588.514080374	2519.369295189
45	2090074	591.0582224	1604.924177393
45	2091137	591.479518815	1318.335538596
45	2093533	592.071665008	887.543653469
45	2093915	592.105593741	279.855460212
45	2094561	592.202592213	1633.994851513
45	2101209	593.681597567	712.274411995
45	2106108	594.970827121	341.948673184
45	2107986	595.640491764	180.50626518
45	2123633	599.707080107	753.485336368
45	2135580	603.19016147	315.761735516
45	2139638	604.309110142	271.803366782
45	2146748	606.095729676	526.213699433
45	2155596	608.000012575	2186.102048254
45	2155897	608.086040306	185.797110716
45	2167486	610.871138518	439.062998742
45	2167594	610.896958269	1559.342069561
45	2172826	612.090537882	67.34014671
45	2187121	615.237297384	1616.856921734
45	2189003	615.623478743	38.198503191
45	2193912	616.493794761	1047.77415012
45	2197940	617.718945825	72.213225941
45	2205606	618.958408851	349.998347726
45	2207352	619.284608393	1357.172383394
45	2223885	622.305990964	1201.49193074
45	2224940	622.626358409	623.696620137
45	2225425	622.736869133	1227.057073743
45	2225613	622.775285796	195.205652703
45	2228693	623.397560715	2225.789597903
45	2236436	624.990575949	1280.617904716
45	2238552	625.604726079	432.170201173
45	2240944	626.072247278	338.671210999
45	2244480	626.715395634	3204.146980236
45	2244643	626.754320523	664.472769697
45	2244821	626.78928612	720.466869522
45	2255709	628.80008177	805.184511507
45	2257378	629.126708376	955.685263976
45	2259417	629.590626248	1024.580295298
45	2267134	631.362824142	921.956848756
45	2273570	632.825574445	275.451009376
45	2284970	634.456314815	2707.394667497
45	2296035	636.642262388	621.921883011
45	2297357	636.846747476	183.486281466
45	2297721	636.906627579	498.284453623
45	2298098	636.961388321	154.352409298
45	2307143	638.458864405	1593.309530969
45	2314041	639.958276755	43.384016625
45	2320892	641.505540158	1275.447761027
45	2327574	642.883285465	476.563489279
45	2333862	644.292875252	858.577547956
45	2334206	644.383171708	21.906884269
45	2338796	645.697761984	1043.784328164
45	2342220	646.393201302	183.027965017
45	2344631	646.868126039	1089.619491539
45	2344852	646.916371693	27.760382484
45	2380780	656.888066566	78.848213103
45	2386290	658.383307861	112.431585544
45	2388217	658.964027942	609.085066566
45	2399473	662.560121363	177.007321107
45	2410719	665.607481111	590.703431978
45	2423068	668.611423754	294.550218361
45	2425965	669.584183899	1535.714337499
45	2431332	671.230327192	85.822157754
45	2440393	673.564169999	714.599146036
45	2447297	675.366372854	654.31643189
45	2458420	678.297042397	1767.967101029
45	2459919	678.687054206	202.963277903
45	2472045	682.146706779	1479.250930653
45	2477681	683.796799647	1014.495419965
45	2492962	688.424805606	193.175045235
45	2495663	689.355698822	676.208148586
45	2514302	694.334767543	187.968635663
45	2515411	694.75344025	350.269472131
45	2519164	696.037153193	2212.710385925
45	2522362	697.103072496	465.433142071
45	2530986	699.451212303	911.414548169
45	2537697	701.376285979	1934.162151225
45	2539634	702.095534137	718.357381538
45	2542772	702.896324497	237.28184195
45	2549411	704.648503749	47.466419322
45	2556237	706.692221056	183.215367292
45	2559058	707.478655198	1107.413719385
45	2565457	709.092800367	529.031266727
45	2581868	714.273363334	43.645520714
45	2606321	721.262081187	456.235638755
45	2609240	722.251099238	1319.32353477
45	2612999	723.279209655	322.500688835
45	2624878	726.131277965	594.791590352
45	2625024	726.151170576	234.413464287
45	2630699	727.339414989	147.927559892
45	2633500	727.937081471	285.123064678
45	2635348	728.473142841	1310.982731298
45	2635967	728.64097483	1476.042284827
45	2640138	729.845769144	321.249900219
45	2646142	731.108155787	53.659707783
45	2647545	731.370120903	635.499163007
45	2648335	731.579308976	139.67550666
45	2654007	732.771982751	3300.457032689
45	2656282	733.249284356	1163.407850951
45	2666505	735.95689861	370.692877623
45	2679815	738.639165228	486.359056834
45	2684466	739.566263313	442.640143142
45	2704450	744.064184682	400.768815
45	2710586	745.744652211	911.823283377
45	2717260	747.238411689	912.58615433
45	2725288	748.701762983	505.764762796
45	2729414	749.501567239	704.301101618
45	2745844	753.313791087	459.96549521
45	2752785	754.672968345	258.029748791
45	2753335	754.784305654	142.451025261
45	2755200	755.305134179	1274.303151787
45	2760164	756.454048902	417.716973961
45	2764300	757.241700365	84.882394666
45	2764766	757.352591285	523.567665303
45	2765110	757.428938813	19.852858159
45	2773037	758.870469119	352.784433893
45	2803831	765.628097273	3210.418046626
45	2808697	766.512627292	27.547876696
45	2814506	767.718325857	674.798483338
45	2836957	773.825717107	1309.413101781
45	2840289	775.027295538	2596.049083495
45	2840677	775.169587043	111.105933484
45	2842292	775.66407555	448.950551406
45	2844668	776.371580216	500.039594454
45	2845370	776.578680735	862.842886075
45	2845875	776.747014394	20.747199998
45	2848295	777.298274059	72.118888482
45	2861096	781.113699835	682.149026086
45	2864096	781.887987907	1486.294150497
45	2866761	782.440791403	1323.488065017
45	2867095	782.545228239	35.192758748
45	2876899	785.832021514	722.176184492
45	2880327	786.998611109	124.749637541
45	2884313	788.115960256	3561.238576342
45	2889336	789.509479663	842.370066069
45	2903012	793.275685146	199.659105933
45	2903443	793.395473403	605.116358128
45	2904089	793.518256722	326.44690485
45	2906935	794.30953332	244.032245582
45	2910380	795.383770705	844.810911808
45	2913829	796.249992391	124.819671817
45	2925886	799.023685702	244.609232153
45	2933884	801.738938736	102.032533588
45	2936064	802.419899997	118.436009368
45	2936442	802.497074125	345.367044857
45	2938679	803.061198926	139.386441509
45	2943457	804.312312143	626.032892507
45	2946703	804.849684594	104.384624623
45	2952862	806.540559048	481.588100418
45	2960745	808.82944141	351.415577596
45	2962280	809.245541884	1995.747753985
45	2970250	811.392962077	92.773149158
45	2970892	811.63140784	535.365260207
45	2976685	813.391606894	685.679340111
45	2981497	814.734425452	971.152439832
45	2992656	818.221584302	603.860673586
45	2993308	818.401642356	1817.86436683
45	2999810	820.247130847	189.604854953
45	3007638	822.860243946	147.30147913
45	3017328	825.856476248	1413.950338509
45	3022307	827.463291728	223.451778261
45	3025506	828.343145857	307.776474888
45	3037799	832.810226768	317.157092356
45	3044220	834.829724575	107.862352719
45	3049091	836.48199815	1302.301637974
45	3066427	841.315884207	4675.386414474
45	3066726	841.41363022	2536.901073642
45	3067599	841.736702351	167.882327014
45	3068130	841.884623307	1477.66574348
45	3070981	842.611994953	648.276000394
45	3081581	845.149008331	1018.393626656
45	3082856	845.536009218	1007.822780409
45	3092640	847.991105943	677.434490349
45	3093365	848.207641139	282.030757434
45	3097522	848.98603163	526.094368977
45	3102086	850.068686549	1043.037259942
45	3107299	851.244259829	3598.557810196
45	3111111	852.236334726	58.685933465
45	3114404	852.738181755	181.929724964
45	3118299	853.500252779	386.414093019
45	3132798	856.519168054	236.551376196
45	3133676	856.852493346	697.504302932
45	3134460	857.084115166	2649.919276595
45	3146477	859.859317266	52.589073916
45	3153244	861.694580446	76.584989858
45	3155160	862.147667932	438.021237549
45	3157848	862.780003378	399.135192584
45	3166464	864.287605699	866.660078067
45	3170453	865.27055867	48.856854088
45	3181501	867.831237574	152.353226681
45	3184261	868.29229333	720.711964917
45	3187974	869.05857844	860.107867969
45	3200391	871.563090521	413.642469225
45	3202438	872.122454058	708.195292851
45	3232624	878.974991571	1787.76926007
45	3233803	879.328208635	730.956321198
45	3270601	888.526188407	1597.712204985
45	3274548	889.54976926	1547.236151295
45	3283479	891.437582986	892.424043899
45	3293325	894.291900962	445.798220623
45	3320447	902.365537654	491.81146803
45	3322641	902.777611484	1540.781518868
45	3323769	903.017471705	516.118553393
45	3330914	904.738775812	391.453889007
45	3333362	905.331381428	5050.538660969
45	3334454	905.634852668	485.101235605
45	3352409	910.279724322	863.877472765
45	3354355	910.997625365	1173.209721757
45	3356316	911.564752046	1826.102624178
45	3365697	914.153731696	415.095657173
45	3370856	915.673976409	108.093693252
45	3375960	917.402492373	496.327796547
45	3379519	918.395681193	74.452191318
45	3380144	918.608477356	829.58592597
45	3391739	921.893463582	987.559984036
45	3398745	923.833197223	238.79362337
45	3399951	924.173275603	2433.310144606
45	3402234	924.792040208	574.260588981
45	3402391	924.825692434	144.160877773
45	3411940	926.988043916	911.347143183
45	3412430	927.181132047	2988.47020822
45	3416769	928.560796733	901.342037402
45	3419102	929.206204643	184.710987792
45	3420521	929.55353679	840.241805149
45	3423705	930.356644871	1270.666834217
45	3428535	931.377381285	645.447351746
45	3429586	931.665429491	2229.004468763
45	3436963	933.392142068	3677.039874433
45	3441749	934.682970914	970.321856369
45	3454696	938.571192146	1349.883551209
45	3461983	940.515212641	111.559824032
45	3467947	942.521154384	37.84372301
45	3474369	944.343056636	253.644035561
45	3489620	948.944144885	175.695285757
45	3489980	949.047056119	609.695908419
45	3493362	950.112206281	446.110711095
45	3498315	951.607663744	419.088868934
45	3503524	953.149074431	329.980676628
45	3504275	953.390023649	706.8167427
45	3504691	953.506323428	1138.904115877
45	3507959	954.41853923	696.350242258
45	3511281	955.332849195	113.932638676
45	3512870	955.834738221	26.274381342
45	3520185	957.725784913	817.213442962
45	3521592	958.136388733	399.45039464
45	3521970	958.274310403	310.204848151
45	3530622	961.084778436	504.639601595
45	3537022	962.836408812	609.760331824
45	3555370	967.577242928	1629.832054999
45	3557307	968.16193233	2494.533949837
45	3560062	968.865425814	537.770840616
45	3566635	970.159024166	241.13890328
45	3569023	970.693485125	1347.61570341
45	3598487	977.748729475	195.829260123
45	3607994	980.067600974	329.186234728
45	3632373	985.545983869	1101.154782842
45	3651206	989.533937754	1371.658354536
45	3673692	994.477617726	1006.976354892
45	3686749	997.418708894	1922.751527888
45	3692572	998.819308642	549.430096718
45	3695212	999.578279636	430.121839711
45	3699075	1000.357924438	1201.518067562
45	3703657	1001.641871265	1199.656069255
45	3705142	1002.223689046	923.406105218
45	3708660	1003.05891513	285.627334996
45	3713513	1004.259246321	765.155718277
45	3713990	1004.4154957	317.541303148
45	3717857	1005.322585552	339.912776979
45	3722388	1006.297297242	87.475106531
45	3722992	1006.404698083	474.050289803
45	3725676	1007.168970155	190.244441745
45	3726144	1007.27262483	114.800881021
45	3727790	1007.690683066	317.185763268
45	3727845	1007.696446765	1183.560080049
45	3728058	1007.747643856	415.424275096
45	3730244	1008.168073016	212.072437433
45	3732585	1008.658508977	901.109544204
45	3736213	1009.311969732	685.209118403
45	3744811	1010.864678818	712.586999036
45	3746133	1011.256694111	240.35929686
45	3754615	1013.481300943	1185.384698649
45	3755130	1013.619995249	350.49967976
45	3755145	1013.620276133	587.986808516
45	3756557	1014.037185016	395.758080211
45	3767468	1017.696487944	766.837136818
45	3771470	1018.780923803	252.879138496
45	3779103	1020.245380795	54.610926506
45	3780881	1020.801620455	116.916871371
45	3782539	1021.331241419	97.372228249
45	3787338	1022.751733831	353.033043014
45	3788618	1023.097291454	558.025790548
45	3805237	1026.814792548	143.987424807
45	3811386	1028.554263943	850.295493362
45	3817018	1030.004711134	545.319174152
45	3839978	1036.28928608	99.486890054
45	3840902	1036.589532916	960.114198103
45	3851672	1039.47657595	668.94668145
45	3859795	1041.644705276	128.15548041
45	3861772	1042.16805121	1309.606285404
45	3881054	1047.250336281	128.648509789
45	3889162	1048.867972841	283.562380572
45	3891994	1049.919983954	103.575318527
45	3923910	1059.743410144	211.165521221
45	3924922	1059.975846729	126.372961664
45	3932264	1061.598281945	10.464672842
45	3933160	1061.934511347	900.465789804
45	3940817	1064.421609039	213.61512013
45	3946280	1066.036705311	1508.191126807
45	3950254	1067.092460734	347.021137857
45	3954364	1068.562595426	336.030132176
45	3965663	1071.576576469	296.862253403
45	3978204	1075.480538676	337.684563109
45	3984697	1077.167983642	265.504728704
45	3993929	1080.405590442	78.710051233
45	3997566	1081.581060228	428.098015931
45	3999158	1082.144474318	410.184043964
45	4000162	1082.507935913	1125.728868564
45	4006436	1084.057284384	1705.803621728
45	4013131	1085.66004929	3371.565508707
45	4018328	1087.102919117	2008.600893542
45	4056374	1096.359093883	2275.384505012
45	4061691	1097.92429098	1534.551772088
45	4062144	1098.031491127	26.023513928
45	4064399	1098.476721016	1182.856377457
45	4069165	1099.681876853	717.118658527
45	4100368	1107.968122281	1782.709213443
45	4101267	1108.151931055	317.891722633
45	4116817	1111.679930844	2773.063381562
45	4124755	1113.557262982	448.548105316
45	4134989	1115.501182454	539.50515997
45	4144783	1118.055371248	33.434006132
45	4145201	1118.185591031	608.056514431
45	4145651	1118.306433202	1294.101917027
45	4147034	1118.722888309	1554.516159869
45	4158201	1121.332565959	218.488722118
45	4172775	1124.781980645	762.05250582
45	4176273	1125.490281908	264.172990363
45	4185071	1127.159933084	161.111901319
45	4186500	1127.619387543	234.081769511
45	4195255	1129.761297817	170.68868173
45	4197964	1130.137760404	519.912257728
45	4204599	1131.566140336	740.183549527
45	4217586	1135.941385668	45.830951695
45	4218095	1136.185167336	1010.213166532
45	4229361	1141.024279021	2986.246642151
45	4232968	1142.928009431	1161.002845597
45	4235043	1143.666410138	322.105472628
46	490491	151.847610553	6.004033087
46	492789	152.265552206	0.417941653
46	502344	154.138052128	1.872499922
46	514288	156.505009246	2.366957118
46	515045	156.682518225	0.177508979
46	529699	160.278312472	3.595794247
46	530830	160.543595574	0.265283102
46	532438	160.91236071	0.368765136
46	542794	163.161441746	2.249081036
46	554867	165.860254414	2.698812668
46	568904	169.060316743	3.200062329
46	593841	176.668394966	7.608078223
46	598456	178.291561695	1.623166729
46	599152	178.53335304	0.241791345
46	604471	180.302129102	1.768776062
46	606036	180.987224486	0.685095384
46	613281	183.721598858	2.734374372
46	621610	186.846726399	3.125127541
46	625022	188.083305426	1.236579027
46	634678	191.225691268	3.142385842
46	643728	194.236531616	3.010840348
46	645107	194.782252964	0.545721348
46	660754	200.693618388	5.911365424
46	663261	201.775233528	1.08161514
46	664046	202.03176884	0.256535312
46	664446	202.159492873	0.127724033
46	666918	202.979507309	0.820014436
46	678571	207.557167272	4.577659963
46	681492	208.688840825	1.131673553
46	688364	211.272505544	2.583664719
46	688797	211.453001248	0.180495704
46	695472	213.551472194	2.098470946
46	700637	215.165356912	1.613884718
46	701203	215.348864633	0.183507721
46	702949	215.938678339	0.589813706
46	705991	216.987794674	1.049116335
46	708924	217.808364187	0.820569513
46	711985	218.954921377	1.14655719
46	712292	219.097994276	0.143072899
46	715432	219.991843587	0.893849311
46	717609	220.72372362	0.731880033
46	720689	221.805313356	1.081589736
46	722332	222.378602444	0.573289088
46	723874	222.941327449	0.562725005
46	731179	225.326235278	2.384907829
46	736487	227.143051124	1.816815846
46	743422	229.66501657	2.521965446
46	745287	230.248968197	0.583951627
46	752431	232.538532686	2.289564489
46	759036	234.825522367	2.286989681
46	771628	239.72800745	4.902485083
46	774935	240.595775631	0.867768181
46	785325	242.95386383	2.358088199
46	793861	245.086079941	2.132216111
46	806219	248.002425253	2.916345312
46	806608	248.105811588	0.103386335
46	806968	248.185502021	0.079690433
46	807023	248.199553365	0.014051344
46	811640	249.276523715	1.07697035
46	818787	250.814388625	1.53786491
46	821127	251.316935351	0.502546726
46	823121	251.741934693	0.424999342
46	827147	252.483995747	0.742061054
46	848498	257.050609376	4.566613629
46	861035	259.539385922	2.488776546
46	877096	263.018118154	3.478732232
46	883919	264.622885486	1.604767332
46	885817	265.054985985	0.432100499
46	890154	265.861777611	0.806791626
46	893743	266.627810735	0.766033124
46	895830	267.021233105	0.39342237
46	896712	267.275634012	0.254400907
46	900589	267.988876636	0.713242624
46	916899	271.169789028	3.180912392
46	917244	271.238535972	0.068746944
46	917427	271.287673777	0.049137805
46	923835	272.610475684	1.322801907