version 2
run PastryDHT-10-20211207-13:24:12-4660
attr Lifetime 5000s
attr configname PastryDHT
attr datetime 20211207-13:24:12
attr experiment PastryDHT
attr inifile configs.ini
attr iterationvars $Lifetime=5000s
attr iterationvars2 "$Lifetime=5000s, $repetition=0"
attr measurement $Lifetime=5000s
attr network oversim.underlay.simpleunderlay.SimpleUnderlayNetwork
attr processid 4660
attr repetition 0
attr replication #0
attr resultdir results
attr runnumber 10
attr seedset 10

vector 61  SimpleUnderlayNetwork.globalObserver.globalStatistics  "GlobalNodeList: Number of nodes"  ETV
vector 62  SimpleUnderlayNetwork.globalObserver.globalStatistics  "GlobalDhtTestMap: Number of stored DHT entries"  ETV
vector 63  SimpleUnderlayNetwork.globalObserver.globalStatistics  "LifetimeChurn: Session Time"  ETV
vector 64  SimpleUnderlayNetwork.globalObserver.globalStatistics  "LifetimeChurn: Time between creates"  ETV
vector 65  SimpleUnderlayNetwork.globalObserver.globalStatistics  "LifetimeChurn: Time between deletes"  ETV
61	9237433	200	1004
61	9716836	250	1006
61	10225403	300	1004
61	10584370	350	994
61	11078610	400	990
61	11603285	450	987
61	12245433	500	987
61	12874966	550	992
61	13405330	600	995
61	13868872	650	998
61	14470250	700	1003
61	15103896	750	1001
61	15693663	800	1005
61	16310846	850	1005
61	16821574	900	1007
61	17471290	950	1009
61	18025560	1000	1006
61	18556305	1050	1005
61	19037329	1100	1007
61	19566434	1150	1009
62	9237434	200	1581
62	9322732	210	1776
62	9389949	220	1941
62	9481227	230	2085
62	9609488	240	2228
62	9716837	250	2387
62	9813780	260	2592
62	9920427	270	2769
62	10025274	280	2933
62	10105181	290	3081
62	10225404	300	3224
62	10282032	310	3399
62	10351363	320	3563
62	10411790	330	3752
62	10500619	340	3928
62	10584371	350	4068
62	10702698	360	4219
62	10800919	370	4387
62	10881338	380	4564
62	10978871	390	4750
62	11078611	400	4905
62	11182822	410	4971
62	11265676	420	4965
62	11369156	430	4980
62	11488352	440	4952
62	11603286	450	4942
62	11759756	460	4939
62	11866245	470	4917
62	12026826	480	4951
62	12140135	490	4950
62	12245434	500	4940
62	12362406	510	4924
62	12473209	520	4913
62	12635855	530	4918
62	12756492	540	4933
62	12874967	550	4944
62	12980864	560	4888
62	13090421	570	4899
62	13170258	580	4908
62	13269592	590	4896
62	13405331	600	4920
62	13526651	610	4907
62	13602703	620	4913
62	13689985	630	4892
62	13761099	640	4890
62	13868873	650	4915
62	13990427	660	4914
62	14120510	670	4916
62	14242060	680	4910
62	14351415	690	4881
62	14470251	700	4901
62	14601707	710	4916
62	14736092	720	4929
62	14836864	730	4918
62	14907869	740	4904
62	15103897	750	4881
62	15241251	760	4903
62	15369675	770	4943
62	15430781	780	4942
62	15576460	790	4950
62	15693664	800	4931
62	15852610	810	4908
62	15964154	820	4921
62	16080780	830	4942
62	16200629	840	4952
62	16310847	850	4959
62	16402110	860	4975
62	16553425	870	4952
62	16627275	880	4935
62	16695514	890	4961
62	16821575	900	4983
62	16928463	910	4979
62	17093259	920	4971
62	17175706	930	4957
62	17279204	940	4945
62	17471291	950	4958
62	17562929	960	4986
62	17698417	970	4956
62	17828435	980	4981
62	17939256	990	4967
62	18025561	1000	4956
62	18099162	1010	4954
62	18181280	1020	4984
62	18346129	1030	4986
62	18414102	1040	4988
62	18556306	1050	4983
62	18650525	1060	4977
62	18773874	1070	4972
62	18870095	1080	4997
62	18947988	1090	4977
62	19037330	1100	4974
62	19105095	1110	4996
62	19219836	1120	4996
62	19406147	1130	4994
62	19489653	1140	4988
62	19566435	1150	4976
62	19685122	1160	4979
62	19804077	1170	4983
62	19944163	1180	5003
62	20051620	1190	4925
63	9294180	207.396567811	5056.693115926
63	9300544	208.490175785	3411.222516948
63	9395636	221.495064332	1696.75604955
63	9428873	225.028962921	1369.776827628
63	9458248	227.942778261	997.871269938
63	9482716	230.180828495	10224.908588246
63	9572702	236.941624763	2117.375348046
63	9614693	241.276710358	5119.217637277
63	9637329	243.872847825	5121.49755799
63	9647206	245.34799584	3077.437375192
63	9680788	247.161895142	3076.396567694
63	9700633	248.352074177	1379.030016287
63	9818883	261.067662262	1489.817007502
63	9822707	261.645063649	6408.257990902
63	9890366	268.008218079	2238.373412368
63	9937764	272.467803245	7342.129260104
63	9981617	276.786397717	3420.877165298
63	9987165	277.690637699	2718.428766411
63	10024656	279.866777708	8021.589596628
63	10104823	289.931797462	2666.455588468
63	10142904	293.557055953	4122.631508758
63	10158473	294.220701053	2843.799267738
63	10285642	311.16398748	7155.723980655
63	10391443	328.080226629	6256.713111276
63	10450019	335.061882973	2713.301607105
63	10453318	335.742959942	2707.855451989
63	10518148	343.023311981	1347.011919687
63	10635515	354.44367312	95.632526343
63	10678261	358.064195629	1184.449428253
63	10737926	363.400792635	7226.702712522
63	10813922	372.191015009	4130.710937258
63	10903251	383.284943107	8382.231376122
63	10905887	383.500745017	19060.96200747
63	10986322	391.351308662	1179.581736875
63	11061815	398.436674219	6991.537386038
63	11098762	400.886622796	632.233602621
63	11169526	408.161295353	102.801206791
63	11236562	416.994940933	7175.433999072
63	11238980	417.34468947	2365.855554416
63	11371978	430.452886063	4338.735768688
63	11372016	430.460258676	2746.704740684
63	11442300	436.102675975	4066.488985941
63	11442702	436.199891567	6608.635409848
63	11474314	438.70677228	12975.184321271
63	11607525	450.661599681	1052.047143985
63	11617933	452.230350614	7222.46326077
63	11636747	452.736984752	3055.726844963
63	11669502	454.96427192	4608.809550152
63	11816218	466.255858248	3820.356459159
63	11817345	466.39985387	781.684326633
63	11887516	471.488069834	4785.664212984
63	11892939	471.941501748	1718.427341933
63	11897350	472.231852746	11684.829877235
63	12086481	485.90816203	7749.671440718
63	12089679	486.386758023	21.164296711
63	12184588	495.647096246	2734.968194262
63	12192738	496.719530382	6694.038200582
63	12198650	497.461273197	7837.378254002
63	12338314	507.914755876	1867.088324327
63	12393422	513.465141641	3862.548744293
63	12393954	513.531995622	8537.183046526
63	12472705	519.893884771	638.823239742
63	12500844	522.579772024	1025.796291327
63	12519632	523.760869116	9075.614965721
63	12542765	525.756383533	12737.720935415
63	12564235	526.869493781	591.126266442
63	12564794	526.931683761	4821.684788399
63	12634115	529.840701946	3039.723392959
63	12724505	536.766042583	12045.25269424
63	12772501	542.022502253	10177.074612505
63	12772811	542.087954866	9198.994781532
63	12789141	544.000139116	4413.324703347
63	12847898	548.352345277	1195.899089329
63	12872631	549.796833311	2121.261523134
63	12921902	553.971817505	8948.559767706
63	12975330	559.682499401	602.410424745
63	13034152	563.775946996	1129.556821202
63	13108379	574.077937126	4100.908525231
63	13114495	574.844785991	2458.857760425
63	13123581	576.203032688	1410.912363771
63	13220900	587.270942049	4315.366611914
63	13246818	589.372067817	1318.176754007
63	13331706	594.538626734	5024.395728172
63	13357381	596.860374611	1123.802210992
63	13429783	602.455706297	10003.705137047
63	13471612	605.672405116	5125.79627625
63	13549784	613.355781738	1872.254343292
63	13600359	619.424094156	123.680398084
63	13643016	624.471070061	5079.460238864
63	13756554	639.287257986	1207.348129259
63	13806322	644.559498988	73.743726041
63	13860761	649.271299566	2813.531720794
63	13863071	649.561027216	6605.100667699
63	13940397	654.901886143	4405.150055801
63	13967570	657.12363783	5712.029890219
63	13995219	660.917548989	9654.083870078
63	14061501	665.267386935	1590.150163555
63	14073712	666.769822948	178.611911579
63	14077724	667.26256695	5350.464346161
63	14105800	668.912102584	70.754138994
63	14241948	679.987955446	5141.910369174
63	14288109	685.382540918	10321.029445148
63	14295778	686.455552749	5519.930278608
63	14347690	689.599707064	814.865494143
63	14367515	691.281195423	2691.859534534
63	14374080	691.915478885	1202.834949166
63	14395190	695.829510071	4470.737269923
63	14444825	698.311566606	5159.230306891
63	14507662	702.900912743	101.989116222
63	14550507	705.52382585	4456.85407581
63	14559759	706.445931546	205.771682284
63	14582577	708.434450337	5384.799316879
63	14684957	715.014362941	3097.000659126
63	14745428	720.618951991	4.935774463
63	14799494	726.604134191	1557.492618492
63	14900672	739.208086576	475.885546608
63	14903552	739.483556253	672.22571158
63	14935457	741.491225271	9079.263406765
63	14953574	742.973556	9494.097585525
63	14958795	743.029940291	17472.072670817
63	15046803	745.718478673	908.688697361
63	15093779	749.057347315	4746.687612479
63	15141979	753.104760831	5925.299657286
63	15203165	757.670243787	1640.909870431
63	15221382	759.344834542	4379.985563265
63	15278509	762.007064355	2872.44197422
63	15426121	778.937370967	2209.466362947
63	15479495	784.27861731	304.358285591
63	15484216	784.757649899	10704.680191101
63	15492863	785.974474167	4570.413654781
63	15562586	788.68019091	1605.344098055
63	15612880	792.920063819	2828.0017196
63	15663047	797.527657237	1526.611577847
63	15679886	798.635943665	6259.454530021
63	15709849	800.54348856	20992.433242179
63	15756549	803.446288426	18293.499341454
63	15759807	803.735684461	490.602708738
63	15825790	808.135404012	674.812027184
63	15827706	808.289792574	4350.112919488
63	15990098	823.880023879	7418.689823934
63	15998513	824.920372212	1628.004469019
63	16029725	827.192988121	5574.463186176
63	16044974	828.654778294	588.189466256
63	16081243	830.034102994	527.81516867
63	16195324	839.421237412	4021.489152622
63	16195671	839.551056757	6261.438620776
63	16322798	851.65501008	1282.229955203
63	16347538	856.259611413	286.895863061
63	16357386	857.625729896	2147.9194761
63	16376388	858.450573041	184.354201852
63	16408658	860.37200914	18847.030760184
63	16442434	861.464815754	4254.109460008
63	16537444	868.553027264	24436.800382574
63	16684371	888.602886841	8386.331380676
63	16724411	892.140549891	10224.839305971
63	16725186	892.209809211	6619.87863484
63	16808752	898.352896924	6104.523623751
63	16867232	903.975340797	1043.958052206
63	16924253	909.485831666	8747.031189311
63	16927398	909.848202479	3524.82596998
63	16979968	914.817890388	462.439812083
63	17027714	917.043592348	4981.230016394
63	17038866	917.837145275	8917.886912989
63	17200400	933.931243865	3148.550040002
63	17206873	934.848159595	1874.123583141
63	17244030	938.097950498	11314.014892818
63	17277759	939.894263845	19815.183094698
63	17281847	940.350934742	13219.051380792
63	17311814	941.880272384	309.644095153
63	17352921	943.689986813	3079.575456866
63	17406285	946.606242064	3080.985063025
63	17519133	956.275353521	20884.338659149
63	17588548	963.150200847	2706.70219712
63	17590583	963.324790452	2485.917681393
63	17620283	965.103567728	3353.511913317
63	17648609	966.747135388	3821.418597484
63	17735331	973.838968219	511.672686136
63	17838851	981.362907481	968.179419025
63	17875677	984.202177154	22535.65618823
63	17931199	988.988169872	3168.665849919
63	18149083	1017.451288722	26720.882806458
63	18151052	1017.618416586	25249.920724779
63	18178423	1019.598505563	18464.37158091
63	18181585	1020.051716457	2197.033735156
63	18198972	1021.378510781	17219.291097234
63	18298441	1025.779761685	3178.105126549
63	18391553	1037.153273675	4156.865073025
63	18413669	1039.942060012	665.597553219
63	18493467	1044.839404088	265.939593217
63	18593014	1055.942126864	1650.673221387
63	18600184	1056.889171697	2817.78093332
63	18683166	1064.081749187	1861.771896478
63	18694968	1065.549823411	6912.005924324
63	18721440	1067.371832847	12463.766280823
63	18799298	1073.710666721	9141.964876558
63	18806808	1074.97634781	950.570202142
63	18949389	1090.220431338	6874.181659667
63	19010877	1097.866196247	578.542254657
63	19094138	1108.325860031	5606.339276709
63	19135288	1112.606445647	6157.239756653
63	19137000	1112.989436599	995.083074983
63	19187142	1117.433469555	16526.089961735
63	19197508	1118.693484196	2162.573506058
63	19214769	1119.425032421	3792.354031439
63	19263251	1122.023321836	2647.712607791
63	19284536	1123.954159696	3127.144087676
63	19289757	1124.122771608	5057.870521333
63	19396202	1128.450811972	877.974233499
63	19522677	1145.839337759	44.285571831
63	19593620	1153.928254527	10108.866044607
63	19593982	1153.972863954	1836.364681189
63	19648603	1156.717454935	4619.731863466
63	19691239	1160.608316575	11179.836580805
63	19724317	1163.608343458	2881.703989927
63	19788383	1168.842749984	8053.629159027
63	19813204	1171.533516246	3903.023049969
63	19832503	1173.730338731	1593.832019417
63	19849641	1174.513327896	437.971055814
63	19945268	1180.092381732	270.149498336
63	19947375	1180.292469952	154.002990723
63	19955705	1181.324883638	771.716256446
63	20017314	1185.473821583	7865.985821084
63	20042471	1188.25466116	751.456422336
63	20083053	1191.296122737	62.995217322
63	20095509	1192.460906839	2531.102796265
63	20110940	1193.436673187	3059.905923937
64	9294180	207.396567811	8.021745367
64	9300544	208.490175785	1.093607974
64	9395636	221.495064332	13.004888547
64	9428873	225.028962921	3.533898589
64	9458248	227.942778261	2.91381534
64	9482716	230.180828495	2.238050234
64	9572702	236.941624763	6.760796268
64	9614693	241.276710358	4.335085595
64	9637329	243.872847825	2.596137467
64	9647206	245.34799584	1.475148015
64	9680788	247.161895142	1.813899302
64	9700633	248.352074177	1.190179035
64	9818883	261.067662262	12.715588085
64	9822707	261.645063649	0.577401387
64	9890366	268.008218079	6.36315443
64	9937764	272.467803245	4.459585166
64	9981617	276.786397717	4.318594472
64	9987165	277.690637699	0.904239982
64	10024656	279.866777708	2.176140009
64	10104823	289.931797462	10.065019754
64	10142904	293.557055953	3.625258491
64	10158473	294.220701053	0.6636451
64	10285642	311.16398748	16.943286427
64	10391443	328.080226629	16.916239149
64	10450019	335.061882973	6.981656344
64	10453318	335.742959942	0.681076969
64	10518148	343.023311981	7.280352039
64	10635515	354.44367312	11.420361139
64	10678261	358.064195629	3.620522509
64	10737926	363.400792635	5.336597006
64	10813922	372.191015009	8.790222374
64	10903251	383.284943107	11.093928098
64	10905887	383.500745017	0.21580191
64	10986322	391.351308662	7.850563645
64	11061815	398.436674219	7.085365557
64	11098762	400.886622796	2.449948577
64	11169526	408.161295353	7.274672557
64	11236562	416.994940933	8.83364558
64	11238980	417.34468947	0.349748537
64	11371978	430.452886063	13.108196593
64	11372016	430.460258676	0.007372613
64	11442300	436.102675975	5.642417299
64	11442702	436.199891567	0.097215592
64	11474314	438.70677228	2.506880713
64	11607525	450.661599681	11.954827401
64	11617933	452.230350614	1.568750933
64	11636747	452.736984752	0.506634138
64	11669502	454.96427192	2.227287168
64	11816218	466.255858248	11.291586328
64	11817345	466.39985387	0.143995622
64	11887516	471.488069834	5.088215964
64	11892939	471.941501748	0.453431914
64	11897350	472.231852746	0.290350998
64	12086481	485.90816203	13.676309284
64	12089679	486.386758023	0.478595993
64	12184588	495.647096246	9.260338223
64	12192738	496.719530382	1.072434136
64	12198650	497.461273197	0.741742815
64	12338314	507.914755876	10.453482679
64	12393422	513.465141641	5.550385765
64	12393954	513.531995622	0.066853981
64	12472705	519.893884771	6.361889149
64	12500844	522.579772024	2.685887253
64	12519632	523.760869116	1.181097092
64	12542765	525.756383533	1.995514417
64	12564235	526.869493781	1.113110248
64	12564794	526.931683761	0.06218998
64	12634115	529.840701946	2.909018185
64	12724505	536.766042583	6.925340637
64	12772501	542.022502253	5.25645967
64	12772811	542.087954866	0.065452613
64	12789141	544.000139116	1.91218425
64	12847898	548.352345277	4.352206161
64	12872631	549.796833311	1.444488034
64	12921902	553.971817505	4.174984194
64	12975330	559.682499401	5.710681896
64	13034152	563.775946996	4.093447595
64	13108379	574.077937126	10.30199013
64	13114495	574.844785991	0.766848865
64	13123581	576.203032688	1.358246697
64	13220900	587.270942049	11.067909361
64	13246818	589.372067817	2.101125768
64	13331706	594.538626734	5.166558917
64	13357381	596.860374611	2.321747877
64	13429783	602.455706297	5.595331686
64	13471612	605.672405116	3.216698819
64	13549784	613.355781738	7.683376622
64	13600359	619.424094156	6.068312418
64	13643016	624.471070061	5.046975905
64	13756554	639.287257986	14.816187925
64	13806322	644.559498988	5.272241002
64	13860761	649.271299566	4.711800578
64	13863071	649.561027216	0.28972765
64	13940397	654.901886143	5.340858927
64	13967570	657.12363783	2.221751687
64	13995219	660.917548989	3.793911159
64	14061501	665.267386935	4.349837946
64	14073712	666.769822948	1.502436013
64	14077724	667.26256695	0.492744002
64	14105800	668.912102584	1.649535634
64	14241948	679.987955446	11.075852862
64	14288109	685.382540918	5.394585472
64	14295778	686.455552749	1.073011831
64	14347690	689.599707064	3.144154315
64	14367515	691.281195423	1.681488359
64	14374080	691.915478885	0.634283462
64	14395190	695.829510071	3.914031186
64	14444825	698.311566606	2.482056535
64	14507662	702.900912743	4.589346137
64	14550507	705.52382585	2.622913107
64	14559759	706.445931546	0.922105696
64	14582577	708.434450337	1.988518791
64	14684957	715.014362941	6.579912604
64	14745428	720.618951991	5.60458905
64	14799494	726.604134191	5.9851822
64	14900672	739.208086576	12.603952385
64	14903552	739.483556253	0.275469677
64	14935457	741.491225271	2.007669018
64	14953574	742.973556	1.482330729
64	14958795	743.029940291	0.056384291
64	15046803	745.718478673	2.688538382
64	15093779	749.057347315	3.338868642
64	15141979	753.104760831	4.047413516
64	15203165	757.670243787	4.565482956
64	15221382	759.344834542	1.674590755
64	15278509	762.007064355	2.662229813
64	15426121	778.937370967	16.930306612
64	15479495	784.27861731	5.341246343
64	15484216	784.757649899	0.479032589
64	15492863	785.974474167	1.216824268
64	15562586	788.68019091	2.705716743
64	15612880	792.920063819	4.239872909
64	15663047	797.527657237	4.607593418
64	15679886	798.635943665	1.108286428
64	15709849	800.54348856	1.907544895
64	15756549	803.446288426	2.902799866
64	15759807	803.735684461	0.289396035
64	15825790	808.135404012	4.399719551
64	15827706	808.289792574	0.154388562
64	15990098	823.880023879	15.590231305
64	15998513	824.920372212	1.040348333
64	16029725	827.192988121	2.272615909
64	16044974	828.654778294	1.461790173
64	16081243	830.034102994	1.3793247
64	16195324	839.421237412	9.387134418
64	16195671	839.551056757	0.129819345
64	16322798	851.65501008	12.103953323
64	16347538	856.259611413	4.604601333
64	16357386	857.625729896	1.366118483
64	16376388	858.450573041	0.824843145
64	16408658	860.37200914	1.921436099
64	16442434	861.464815754	1.092806614
64	16537444	868.553027264	7.08821151
64	16684371	888.602886841	20.049859577
64	16724411	892.140549891	3.53766305
64	16725186	892.209809211	0.06925932
64	16808752	898.352896924	6.143087713
64	16867232	903.975340797	5.622443873
64	16924253	909.485831666	5.510490869
64	16927398	909.848202479	0.362370813
64	16979968	914.817890388	4.969687909
64	17027714	917.043592348	2.22570196
64	17038866	917.837145275	0.793552927
64	17200400	933.931243865	16.09409859
64	17206873	934.848159595	0.91691573
64	17244030	938.097950498	3.249790903
64	17277759	939.894263845	1.796313347
64	17281847	940.350934742	0.456670897
64	17311814	941.880272384	1.529337642
64	17352921	943.689986813	1.809714429
64	17406285	946.606242064	2.916255251
64	17519133	956.275353521	9.669111457
64	17588548	963.150200847	6.874847326
64	17590583	963.324790452	0.174589605
64	17620283	965.103567728	1.778777276
64	17648609	966.747135388	1.64356766
64	17735331	973.838968219	7.091832831
64	17838851	981.362907481	7.523939262
64	17875677	984.202177154	2.839269673
64	17931199	988.988169872	4.785992718
64	18149083	1017.451288722	28.46311885
64	18151052	1017.618416586	0.167127864
64	18178423	1019.598505563	1.980088977
64	18181585	1020.051716457	0.453210894
64	18198972	1021.378510781	1.326794324
64	18298441	1025.779761685	4.401250904
64	18391553	1037.153273675	11.37351199
64	18413669	1039.942060012	2.788786337
64	18493467	1044.839404088	4.897344076
64	18593014	1055.942126864	11.102722776
64	18600184	1056.889171697	0.947044833
64	18683166	1064.081749187	7.19257749
64	18694968	1065.549823411	1.468074224
64	18721440	1067.371832847	1.822009436
64	18799298	1073.710666721	6.338833874
64	18806808	1074.97634781	1.265681089
64	18949389	1090.220431338	15.244083528
64	19010877	1097.866196247	7.645764909
64	19094138	1108.325860031	10.459663784
64	19135288	1112.606445647	4.280585616
64	19137000	1112.989436599	0.382990952
64	19187142	1117.433469555	4.444032956
64	19197508	1118.693484196	1.260014641
64	19214769	1119.425032421	0.731548225
64	19263251	1122.023321836	2.598289415
64	19284536	1123.954159696	1.93083786
64	19289757	1124.122771608	0.168611912
64	19396202	1128.450811972	4.328040364
64	19522677	1145.839337759	17.388525787
64	19593620	1153.928254527	8.088916768
64	19593982	1153.972863954	0.044609427
64	19648603	1156.717454935	2.744590981
64	19691239	1160.608316575	3.89086164
64	19724317	1163.608343458	3.000026883
64	19788383	1168.842749984	5.234406526
64	19813204	1171.533516246	2.690766262
64	19832503	1173.730338731	2.196822485
64	19849641	1174.513327896	0.782989165
64	19945268	1180.092381732	5.579053836
64	19947375	1180.292469952	0.20008822
64	19955705	1181.324883638	1.032413686
64	20017314	1185.473821583	4.148937945
64	20042471	1188.25466116	2.780839577
64	20083053	1191.296122737	3.041461577
64	20095509	1192.460906839	1.164784102
64	20110940	1193.436673187	0.975766348
65	9333081	210.433268736	19.601347915
65	9360901	213.679744845	3.246476109
65	9392053	220.465145274	6.785400429
65	9453894	227.035336557	6.570191283
65	9471969	228.890374229	1.855037672
65	9474055	229.379749519	0.48937529
65	9527695	232.407756048	3.028006529
65	9623480	243.217703775	10.809947727
65	9754688	252.802654419	9.584950644
65	9777425	254.274346236	1.471691817
65	9821899	261.476698667	7.202352431
65	9836018	264.711701472	3.235002805
65	9940457	272.843485556	8.131784084
65	9984778	277.226673612	4.383188056
65	9991681	278.407779322	1.18110571
65	9994294	278.565519908	0.157740586
65	10024461	279.840898468	1.27537856
65	10025956	280.1318734	0.290974932
65	10033117	280.836030311	0.704156911
65	10171825	295.280582463	14.444552152
65	10228967	300.555793023	5.27521056
65	10279272	308.927096516	8.371303493
65	10280806	309.415228523	0.488132007
65	10282712	310.396480943	0.98125242
65	10289164	311.916063327	1.519582384
65	10319106	315.465253625	3.549190298
65	10331728	317.332511815	1.86725819
65	10347725	319.432225449	2.099713634
65	10362999	322.006440321	2.574214872
65	10366024	322.541460284	0.535019963
65	10371248	323.497915057	0.956454773
65	10394803	328.563384914	5.065469857
65	10437311	333.009873865	4.446488951
65	10437918	333.101155852	0.091281987
65	10555146	346.328171268	13.227015416
65	10556174	346.465406422	0.137235154
65	10595876	351.715109791	5.249703369
65	10648615	355.885863453	4.170753662
65	10722547	361.524212455	5.638349002
65	10781953	367.579539812	6.055327357
65	10824649	374.123519743	6.543979931
65	10848935	375.510389859	1.386870116
65	10857678	376.414597428	0.904207569
65	10861630	376.996649971	0.582052543
65	10864246	377.510535459	0.513885488
65	10864566	377.614323122	0.103787663
65	10961466	387.388732445	9.774409323
65	10981867	390.631406652	3.242674207
65	11073967	399.511962537	8.880555885
65	11079578	400.091419839	0.579457302
65	11142550	404.492736103	4.401316264
65	11158854	406.437803257	1.945067154
65	11176776	409.010332919	2.572529662
65	11226812	415.146754459	6.13642154
65	11232406	416.07250957	0.925755111
65	11265527	419.986949206	3.914439636
65	11415444	432.985712147	12.998762941
65	11415996	433.059821847	0.0741097
65	11436571	435.076199463	2.016377616
65	11437185	435.14146914	0.065269677
65	11452552	437.564737635	2.423268495
65	11453819	437.754650958	0.189913323
65	11513199	441.271964378	3.51731342
65	11513489	441.325091741	0.053127363
65	11514445	441.397829216	0.072737475
65	11549312	443.223639879	1.825810663
65	11565311	444.826702246	1.603062367
65	11573975	445.723858169	0.897155923
65	11749694	459.018558723	13.294700554
65	11823947	466.719348421	7.700789698
65	11829709	467.359846138	0.640497717
65	11851860	468.598537596	1.238691458
65	12090844	486.539677563	17.941139967
65	12115079	488.883131801	2.343454238
65	12165314	492.551054734	3.667922933
65	12187107	495.962502144	3.41144741
65	12188934	496.138782994	0.17628085
65	12328865	506.545753757	10.406970763
65	12344636	508.622681948	2.076928191
65	12396887	513.722506997	5.099825049
65	12403544	514.391003961	0.668496964
65	12463699	518.071310615	3.680306654
65	12477364	520.641934918	2.570624303
65	12855438	548.709790277	28.067855359
65	12873403	549.882087782	1.172297505
65	12974443	559.649416689	9.767328907
65	13021259	562.292037077	2.642620388
65	13094034	571.051583422	8.759546345
65	13121804	575.812207374	4.760623952
65	13128032	576.885725361	1.073517987
65	13212657	586.136397321	9.25067196
65	13543033	612.360544024	26.224146703
65	13547008	612.828722217	0.468178193
65	13683630	628.567983581	15.739261364
65	13710412	632.89929338	4.331309799
65	13723406	634.850439035	1.951145655
65	13757853	639.451239385	4.60080035
65	13763534	640.482174283	1.030934898
65	13765012	640.668848571	0.186674288
65	13874722	650.953752296	10.284903725
65	13960942	656.791507527	5.837755231
65	13985240	659.166228956	2.374721429
65	13997329	661.22057001	2.054341054
65	14232464	678.081052181	16.860482171
65	14241169	679.802330898	1.721278717
65	14261130	683.322103061	3.519772163
65	14295343	686.354824607	3.032721546
65	14386664	694.100827906	7.746003299
65	14400091	696.616986369	2.516158463
65	14510688	703.303225029	6.68623866
65	14559874	706.478196263	3.174971234
65	14627295	711.104990031	4.626793768
65	14679816	714.399067247	3.294077216
65	14737949	720.198773174	5.799705927
65	14744953	720.539260052	0.340486878
65	14745435	720.618951991	0.079691939
65	14753289	721.767841883	1.148889892
65	14786943	724.666241578	2.898399695
65	14797507	726.340780888	1.67453931
65	14804778	727.492167535	1.151386647
65	14809813	728.10449224	0.612324705
65	14871186	734.347296297	6.242804057
65	14896906	738.383114714	4.035818417
65	15047204	745.777687429	7.394572715
65	15130904	751.932703824	6.155016395
65	15286498	762.658470113	10.725766289
65	15346941	767.14320331	4.484733197
65	15418021	777.207801918	10.064598608
65	15425655	778.839759425	1.631957507
65	15431616	780.23651323	1.396753805
65	15575881	789.890028965	9.653515735
65	15593852	791.063636365	1.1736074
65	15606720	792.601438253	1.537801888
65	15609474	792.694433988	0.092995735
65	15624089	794.515090376	1.820656388
65	15648073	796.122932036	1.60784166
65	15802008	806.032338326	9.90940629
65	15813136	806.998593394	0.966255068
65	15900400	812.084804798	5.086211404
65	16022951	826.25882928	14.174024482
65	16041103	827.921413307	1.662584027
65	16085709	830.381734527	2.46032122
65	16184885	837.73173066	7.349996133
65	16185704	837.819133506	0.087402846
65	16249918	842.468584317	4.649450811
65	16311091	850.031309332	7.562725015
65	16325924	852.292091379	2.260782047
65	16382067	858.935660331	6.643568952
65	16468910	862.399686061	3.46402573
65	16483632	863.3883417	0.988655639
65	16610938	876.845322664	13.456980964
65	16687654	889.078947227	12.233624563
65	16775960	894.697650094	5.618702867
65	16800790	897.21761383	2.519963736
65	16843449	901.520800283	4.303186453
65	16855609	902.649761842	1.128961559
65	16871794	904.305261814	1.655499972
65	16900311	906.314464273	2.009202459
65	16913658	907.781929432	1.467465159
65	17029507	917.182010227	9.400080795
65	17179863	930.973013401	13.791003174
65	17187123	932.185189195	1.212175794
65	17203886	934.293237747	2.108048552
65	17209057	935.080922591	0.787684844
65	17234629	937.063716345	1.982793754
65	17300915	941.521031904	4.457315559
65	17341364	943.561298391	2.040266487
65	17440194	948.282553122	4.721254731
65	17481152	950.635607857	2.353054735
65	17486026	951.710046929	1.074439072
65	17518549	956.208029114	4.497982185
65	17581265	961.796301034	5.58827192
65	17716282	971.91406525	10.117764216
65	17810427	977.84046684	5.92640159
65	17824181	979.388973622	1.548506782
65	17931717	989.02740325	9.638429628
65	17978847	993.768659215	4.741255965
65	17984022	994.620550396	0.851891181
65	17999320	996.876823087	2.256272691
65	18007495	998.180279584	1.303456497
65	18018082	999.262005853	1.081726269
65	18155884	1018.120225417	18.858219564
65	18312320	1027.265260044	9.145034627
65	18316722	1027.804774893	0.539514849
65	18370892	1033.872987012	6.068212119
65	18391248	1037.04269631	3.169709298
65	18559468	1050.401530511	13.358834201
65	18593326	1055.993714723	5.592184212
65	18679793	1063.665345799	7.671631076
65	18681542	1063.842600008	0.177254209
65	18747880	1068.648351818	4.80575181
65	18798947	1073.636902901	4.988551083
65	18922693	1086.388405649	12.751502748
65	18959361	1091.751266952	5.362861303
65	18997440	1095.670149263	3.918882311
65	19053301	1101.812640173	6.14249091
65	19058625	1102.995760223	1.18312005
65	19147393	1114.604216313	11.60845609
65	19167266	1115.236816388	0.632600075
65	19393944	1128.155474474	12.918658086
65	19428389	1132.044444089	3.888969615
65	19509620	1143.717124513	11.672680424
65	19529857	1147.092924146	3.375799633
65	19567836	1150.139554129	3.046629983
65	19570639	1150.550832968	0.411278839
65	19684873	1159.964484733	9.413651765
65	19722179	1163.516156945	3.551672212
65	19756874	1165.475014516	1.958857571
65	19862178	1175.12490959	9.649895074
65	19948813	1180.447615626	5.322706036
65	20049231	1188.815821583	8.368205957
65	20050243	1189.011013642	0.195192059
65	20118025	1194.078648164	5.067634522
