version 2
run PastryDHT-7-20211207-13:07:42-4660
attr Lifetime 800s
attr configname PastryDHT
attr datetime 20211207-13:07:42
attr experiment PastryDHT
attr inifile configs.ini
attr iterationvars $Lifetime=800s
attr iterationvars2 "$Lifetime=800s, $repetition=0"
attr measurement $Lifetime=800s
attr network oversim.underlay.simpleunderlay.SimpleUnderlayNetwork
attr processid 4660
attr repetition 0
attr replication #0
attr resultdir results
attr runnumber 7
attr seedset 7

vector 43  SimpleUnderlayNetwork.globalObserver.globalStatistics  "GlobalNodeList: Number of nodes"  ETV
vector 44  SimpleUnderlayNetwork.globalObserver.globalStatistics  "GlobalDhtTestMap: Number of stored DHT entries"  ETV
vector 45  SimpleUnderlayNetwork.globalObserver.globalStatistics  "LifetimeChurn: Session Time"  ETV
vector 46  SimpleUnderlayNetwork.globalObserver.globalStatistics  "LifetimeChurn: Time between creates"  ETV
vector 47  SimpleUnderlayNetwork.globalObserver.globalStatistics  "LifetimeChurn: Time between deletes"  ETV
43	11187992	200	1006
43	13026327	250	1011
43	14957651	300	1028
43	16950616	350	1042
43	19025312	400	1035
43	20952008	450	1018
43	22776124	500	1007
43	24880217	550	1016
43	26991676	600	1035
43	28884954	650	1035
43	30855185	700	1019
43	33000153	750	1033
43	34802110	800	1019
43	36874176	850	1004
43	38908479	900	1001
43	41090249	950	996
43	43095989	1000	1005
43	45132243	1050	1008
43	47347109	1100	1008
43	49190457	1150	1003
44	11187993	200	1476
44	11542904	210	1656
44	11908577	220	1831
44	12284110	230	1964
44	12721056	240	2095
44	13026328	250	2250
44	13492775	260	2422
44	13839547	270	2597
44	14241537	280	2773
44	14606389	290	2916
44	14957652	300	3058
44	15277886	310	3216
44	15700170	320	3381
44	16144368	330	3573
44	16526896	340	3753
44	16950617	350	3903
44	17393522	360	4008
44	17813601	370	4172
44	18125318	380	4349
44	18610752	390	4557
44	19025313	400	4708
44	19385436	410	4796
44	19734924	420	4796
44	20195091	430	4796
44	20584154	440	4798
44	20952009	450	4776
44	21298174	460	4768
44	21680843	470	4817
44	22040566	480	4812
44	22386211	490	4821
44	22776125	500	4823
44	23219530	510	4833
44	23650835	520	4823
44	24014172	530	4837
44	24394422	540	4828
44	24880218	550	4829
44	25308619	560	4835
44	25738850	570	4846
44	26143590	580	4842
44	26520533	590	4846
44	26991677	600	4840
44	27416821	610	4845
44	27753513	620	4871
44	28142891	630	4850
44	28508681	640	4841
44	28884955	650	4844
44	29275878	660	4889
44	29675075	670	4883
44	30085652	680	4868
44	30417442	690	4846
44	30855186	700	4854
44	31280995	710	4828
44	31747115	720	4867
44	32155326	730	4874
44	32556910	740	4867
44	33000154	750	4836
44	33317222	760	4851
44	33675780	770	4840
44	34045845	780	4877
44	34405019	790	4874
44	34802111	800	4849
44	35317228	810	4831
44	35691110	820	4835
44	36065612	830	4838
44	36497211	840	4869
44	36874177	850	4871
44	37308537	860	4864
44	37743245	870	4837
44	38075760	880	4814
44	38511634	890	4841
44	38908480	900	4847
44	39411807	910	4840
44	39853534	920	4803
44	40297499	930	4794
44	40752291	940	4779
44	41090250	950	4795
44	41414268	960	4799
44	41817719	970	4794
44	42247522	980	4784
44	42697565	990	4776
44	43095990	1000	4765
44	43493775	1010	4775
44	43915256	1020	4773
44	44394042	1030	4775
44	44779916	1040	4745
44	45132244	1050	4775
44	45596385	1060	4744
44	46062156	1070	4744
44	46510206	1080	4752
44	46977838	1090	4741
44	47347110	1100	4745
44	47743721	1110	4753
44	48108468	1120	4731
44	48494968	1130	4749
44	48821277	1140	4751
44	49190458	1150	4751
44	49609851	1160	4731
44	49976412	1170	4727
44	50374267	1180	4736
44	50792593	1190	4667
45	11188510	200.01483411	344.071842651
45	11201394	200.642486595	281.170817944
45	11226527	201.847610553	677.96886828
45	11232493	202.265552206	2927.10439539
45	11249436	202.763529481	391.988061458
45	11260550	203.01966581	2382.95422214
45	11264045	203.077535038	228.397452201
45	11296137	204.138052128	23.873659528
45	11387346	206.505009246	615.741530409
45	11394341	206.597908767	116.065820909
45	11399204	206.682518225	481.659353459
45	11437342	207.385914933	410.083360327
45	11459696	208.224908631	2334.387428491
45	11550356	210.278312472	1881.396563594
45	11558640	210.543595574	1064.886393759
45	11559748	210.610764776	21.432370249
45	11567689	210.91236071	134.268740991
45	11613430	212.21519419	118.330413306
45	11623169	212.583698023	1484.447408852
45	11651312	213.161441746	1099.009107489
45	11667683	213.788721648	633.803468126
45	11678680	213.967197324	1233.754348354
45	11747827	215.428673347	756.641457463
45	11759722	215.711155098	93.178199289
45	11785551	216.433685338	679.442647602
45	11792061	216.733355476	1015.145307844
45	11842259	218.268117875	657.763829713
45	11845338	218.378315802	823.372257135
45	11878235	219.060316743	792.56906956
45	11949407	221.199788026	678.130722092
45	11981495	221.867093737	293.029920089
45	12014419	222.780682782	1536.013395929
45	12106532	225.321974691	453.011165995
45	12123514	225.842809024	78.962282677
45	12128240	226.00467587	936.629380004
45	12147208	226.668394966	1605.74900734
45	12156112	226.909847423	2682.248759907
45	12206083	227.950568468	601.52713128
45	12216556	228.291561695	61.66699156
45	12217561	228.33272849	580.604150719
45	12226017	228.53335304	2186.843290141
45	12226467	228.542704862	154.842558306
45	12230304	228.608466208	76.241252495
45	12301121	230.236246378	1124.376020447
45	12308540	230.316108686	1106.145815563
45	12354006	230.987224486	2915.997247888
45	12434866	232.620184279	2310.141150727
45	12449821	232.981633789	946.862725245
45	12471180	233.721598858	887.895486717
45	12542122	235.413475267	1648.765281193
45	12563648	235.906136041	552.762507093
45	12571957	236.220254419	569.014487541
45	12572639	236.246602071	640.260429455
45	12573943	236.273522386	1071.295992242
45	12595546	236.846726399	1781.123645359
45	12648945	238.083305426	783.119665749
45	12753616	241.225691268	578.04194318
45	12807250	243.05252515	924.547153348
45	12836831	243.623759024	468.502523353
45	12841129	243.80598932	397.105759134
45	12850758	244.236531616	181.116519486
45	12861553	244.782252964	528.202239986
45	12870577	245.058557715	501.47260687
45	12896622	245.610067176	691.878928367
45	12910384	245.98473212	133.281014834
45	12928221	246.729617323	7.757331191
45	12966284	248.080741225	761.739404228
45	12970692	248.358063545	171.245018411
45	12972637	248.428342591	421.952034741
45	12982129	248.791337061	3699.84083349
45	13018307	249.522758928	1063.498069009
45	13041813	250.594878514	80.475658162
45	13043512	250.693618388	1458.944817993
45	13089324	251.775233528	2205.810390206
45	13095303	252.03176884	1226.925017265
45	13099908	252.159492873	691.721326749
45	13102139	252.267847523	11.907301655
45	13102981	252.30316271	4018.005208698
45	13128701	252.979507309	209.406557175
45	13137967	253.087060075	249.304069653
45	13262391	255.048838889	374.550428803
45	13273922	255.286506413	133.418987132
45	13284911	255.66409034	2314.885599254
45	13321806	256.521415639	1123.132247729
45	13378025	257.557167272	1510.237686304
45	13394690	257.897335208	190.754747769
45	13433442	258.688840825	1360.736013362
45	13474751	259.458568531	154.32389106
45	13481781	259.646327613	253.554898911
45	13535900	261.272505544	358.005894174
45	13588524	262.799399646	1345.927872403
45	13605577	263.475514729	301.245205763
45	13606960	263.551472194	1145.317100911
45	13669994	265.165356912	1227.705096201
45	13681830	265.348864633	644.947867978
45	13684871	265.451846216	1040.675076331
45	13700079	265.938678339	149.388943752
45	13729901	266.987794674	219.418961114
45	13775177	267.808364187	664.386307174
45	13791002	268.540172659	1060.300121344
45	13803002	268.954921377	61.092973297
45	13810756	269.097994276	1000.212190375
45	13819926	269.350636529	1969.50966081
45	13834508	269.767638228	296.664208182
45	13839447	269.991843587	249.383013074
45	13856000	270.72372362	334.622666348
45	13861356	270.827044797	559.883771767
45	13884078	271.19865891	648.25761728
45	13886501	271.281169824	749.92406885
45	13900507	271.805313356	415.844489255
45	13921672	272.378602444	527.34116068
45	13955386	272.991501427	1302.138888158
45	14066689	275.326235278	1146.414499174
45	14141548	276.489099595	333.001560345
45	14145913	276.639763477	589.639472371
45	14163843	277.143051124	1754.647243098
45	14207051	278.356156117	1739.202047262
45	14235725	279.66501657	370.623893165
45	14264459	280.37092306	1500.82867293
45	14310152	281.618888722	204.666996247
45	14319396	281.78163982	280.286348953
45	14325525	281.919827144	67.365164048
45	14358463	282.538532686	1826.907547543
45	14422812	284.777655587	1899.071614673
45	14424048	284.825522367	2547.385404302
45	14440098	285.595928906	274.691358278
45	14512305	287.473033905	152.766121859
45	14598068	289.72800745	1363.739240701
45	14601036	289.804214326	1795.169377709
45	14615045	290.570698704	1178.304326028
45	14615456	290.595775631	371.257807379
45	14659332	291.758589338	636.921146286
45	14691084	292.95386383	191.283556677
45	14743187	294.67705972	965.951419955
45	14755065	295.086079941	395.024577085
45	14823567	297.25941036	104.873162597
45	14871249	298.002425253	381.876059401
45	14875687	298.105811588	681.024849269
45	14879843	298.199553365	1446.015811381
45	14901045	298.928312398	69.151661696
45	14915946	299.276523715	247.284607518
45	14950022	299.899523399	1261.497349338
45	14990769	300.814388625	194.463387431
45	15016969	301.449924938	621.465548779
45	15064046	302.145353049	55.34716217
45	15072807	302.483995747	2404.483083598
45	15185033	306.214528515	381.552746337
45	15202957	307.050609376	140.98936564
45	15270783	309.539385922	1338.424236969
45	15271280	309.575432387	74.033944863
45	15273827	309.751100519	1574.731484175
45	15276071	309.907781946	3501.021992116
45	15315975	310.936101011	160.344417278
45	15359434	312.200069559	117.530252898
45	15430724	314.095471063	1081.220744034
45	15442719	314.30533443	641.50608337
45	15455545	314.624465962	146.629035966
45	15458283	314.657561515	762.530160998
45	15468230	314.972756356	355.178526002
45	15473458	315.054985985	1731.235932248
45	15488660	315.401375969	1753.407789227
45	15508966	315.861777611	4.526346216
45	15549545	316.627810735	1149.856554808
45	15572821	317.102752718	905.798529371
45	15577140	317.275634012	148.327026653
45	15598207	317.795195634	2023.637481425
45	15599827	317.822530213	388.208098918
45	15637719	318.812073158	1282.425855848
45	15659326	319.318469723	995.443308711
45	15745330	321.149339203	903.988019759
45	15746130	321.169789028	921.815773124
45	15750811	321.238535972	2990.920472078
45	15752885	321.287673777	1168.474428134
45	15776355	321.68974851	11.718977801
45	15810376	322.610475684	2089.606114041
45	15856883	323.923539042	798.714769752
45	15869558	324.419860381	443.634267989
45	15885637	325.016335619	1417.662656187
45	15893240	325.175152758	352.295609016
45	15902043	325.373942024	1982.259339489
45	15934014	326.088070573	163.102810483
45	15977333	327.054061739	147.201099943
45	16116648	329.465628097	1146.433576491
45	16138492	329.845129186	284.002020088
45	16156879	330.557721319	25.861618492
45	16179561	331.352321558	611.355173756
45	16249585	333.016871211	202.509886524
45	16257192	333.182133895	214.37163893
45	16258156	333.19385643	78.811484849
45	16266548	333.40513283	1292.104136262
45	16331203	334.919231909	93.162320006
45	16373903	335.981991478	1053.523536095
45	16482894	338.935209355	572.448491113
45	16503121	339.347058108	7.918352239
45	16513411	339.635276203	178.420358088
45	16515441	339.685986381	406.264077508
45	16522984	339.892922314	338.822058564
45	16526038	339.982790528	1842.126931676
45	16555968	340.963899036	613.876487545
45	16567456	341.270072934	921.998414837
45	16570027	341.314649395	1969.436238628
45	16613493	341.949041825	721.485788835
45	16631990	342.581946109	421.957791436
45	16714018	344.665833806	65.199973421
45	16716450	344.759209031	3.889311061
45	16744789	345.855573086	1187.551994675
45	16763038	346.218162258	142.792759774
45	16807739	347.074765736	700.886573194
45	16820693	347.713756131	968.09400744
45	16821163	347.7380739	1698.944647883
45	16854596	348.274851638	423.502811598
45	16856431	348.331811821	899.894532564
45	16867897	348.648125962	233.535077109
45	16896435	349.008934011	2505.378747035
45	16938414	349.761383439	584.130403051
45	16939945	349.793994418	23.699853257
45	16981387	350.635873485	897.768285502
45	17013157	351.421776617	469.423106266
45	17061438	352.19961242	710.358620014
45	17112588	353.308139471	297.424558794
45	17160316	353.874042134	20.363475267
45	17176450	354.178622651	2487.720347203
45	17176872	354.194124793	1341.996039057
45	17178267	354.248520821	77.721486754
45	17197263	354.885920399	2762.868082857
45	17207154	355.095760379	300.724674583
45	17301296	357.339915465	265.440063982
45	17317382	357.93149982	572.990292367
45	17356288	358.72166496	216.854986212
45	17402556	360.124132211	282.624531931
45	17422117	360.641442244	140.790580255
45	17536830	363.547644295	236.726735784
45	17538292	363.590383738	54.40742939
45	17549447	363.74630032	177.906658994
45	17556841	363.864292573	478.11960935
45	17567512	364.042199659	394.322067181
45	17573288	364.170228929	1340.953614242
45	17581020	364.53180935	149.022858577
45	17661940	366.321832005	298.270581323
45	17739381	367.992072948	814.508882601
45	17828459	370.212728262	2660.113434519
45	17840474	370.549703013	119.497300632
45	17911936	372.913417038	762.13515889
45	17919784	373.200275341	34.013250056
45	17921185	373.285865547	524.56595089
45	17937140	373.932858045	2383.87052855
45	17999164	376.347331558	549.284663012
45	18093387	379.336919404	190.921150364
45	18093779	379.340690392	645.737680951
45	18101831	379.455923892	73.623819207
45	18145410	380.909882742	465.388485525
45	18147486	380.979377853	1316.281409218
45	18186834	381.580054044	168.02205814
45	18199476	381.880121316	25.535928391
45	18200830	381.937445458	507.170220642
45	18264779	383.186246995	251.528614753
45	18268052	383.244148908	305.888913593
45	18296062	383.765345322	1618.933681277
45	18303274	383.889161591	367.637500726
45	18322361	384.245545946	1940.118213211
45	18334282	384.562047042	1769.213650692
45	18345513	384.829076918	185.763327979
45	18410733	385.991074886	688.484779267
45	18441167	386.491907661	144.045326597
45	18463935	386.915799283	22.939982495
45	18595863	389.676663416	503.531771614
45	18609856	389.981082158	373.095673314
45	18674848	391.935359098	109.04994889
45	18684794	392.160576843	869.54264356
45	18690712	392.288071936	291.159030029
45	18697300	392.365777214	474.877387545
45	18701105	392.430112788	869.691808993
45	18714814	392.795367446	20.497278941
45	18715534	392.82967009	6.05509838
45	18862383	395.646683641	18.172893529
45	18928734	397.033783071	1759.161386457
45	18949531	397.641987705	389.339483631
45	18969436	398.361674978	137.828331201
45	18975164	398.521351444	1785.72914792
45	19015604	399.650860013	940.600600301
45	19095753	401.530556731	247.226018166
45	19108165	401.972066732	777.164606006
45	19149276	402.83627226	429.675774978
45	19164177	403.370228321	234.853585151
45	19327438	407.563096848	1096.837885409
45	19363589	409.234130463	461.839584162
45	19371937	409.513596577	2433.191845941
45	19401253	410.702739984	423.226222702
45	19428646	411.276612609	1006.476546399
45	19450033	412.141772848	316.308220712
45	19483282	413.225784657	592.073133409
45	19494000	413.410510199	204.877413358
45	19520993	414.324669243	123.320864702
45	19522031	414.359769794	1617.831465781
45	19535015	414.94163613	553.538929654
45	19535068	414.944127034	742.720116067
45	19546167	415.282101106	155.983778848
45	19551573	415.615825227	290.052643396
45	19642252	417.555200043	197.229621399
45	19642355	417.557338687	854.902915927
45	19702806	418.836246409	348.566391733
45	19725873	419.443717018	223.408757912
45	19764039	420.743677655	3193.21550848
45	19765877	420.776956353	375.765204693
45	19781815	421.668838073	79.686828658
45	19790719	422.089736264	51.834170289
45	19800177	422.34841403	880.106964538
45	19818058	422.717921193	401.280490357
45	19821366	422.855433161	658.022336774
45	19858846	424.002464206	586.309009574
45	19922266	424.87557473	996.743917922
45	19933036	425.116752209	289.443587568
45	19982953	426.152717366	199.529596174
45	20001165	426.410661508	390.117357731
45	20064016	427.291675569	3589.060028624
45	20065947	427.316922867	344.121254836
45	20167279	429.202719864	1176.507602551
45	20167527	429.206710775	831.05505569
45	20288068	431.516286977	1808.350901171
45	20296928	431.962628911	964.738461866
45	20299037	432.06889036	2872.200410545
45	20314370	432.569335496	144.961137184
45	20398765	434.853226085	264.719562017
45	20408241	435.198004705	767.166955046
45	20412778	435.317856164	807.439228422
45	20479318	437.09438266	761.550802183
45	20488450	437.275860119	1861.791973934
45	20501599	437.5807171	254.940739335
45	20504881	437.753865834	250.006656262
45	20591648	440.276369364	1571.514848923
45	20626997	441.455733348	68.613009378
45	20664365	442.177939353	197.358743831
45	20705896	443.022022767	715.153430766
45	20773989	444.705858134	1254.723775092
45	20825856	446.299410115	787.671591347
45	20851194	447.081451172	843.607950995
45	20878878	448.001071649	1616.91577189
45	20939657	449.603161386	740.549160545
45	21013638	452.050570128	77.468317255
45	21045523	453.385940231	79.286183146
45	21052135	453.552448308	425.907748805
45	21060732	453.857507336	48.379190047
45	21083902	454.814678404	1010.587084229
45	21090843	455.123348852	1309.492177627
45	21128900	456.604656004	194.645609136
45	21142868	456.894446706	7.566626132
45	21163485	457.237402845	2140.558609928
45	21178542	457.51084657	759.530141756
45	21181052	457.580441997	1067.690876087
45	21199272	458.215097594	166.647958486
45	21515062	465.317481214	596.187698709
45	21523807	465.565130302	1304.874981513
45	21527076	465.702701784	284.349357088
45	21540476	466.277439892	301.454964362
45	21546713	466.437984975	73.579456106
45	21560422	466.924129741	552.150604149
45	21607667	468.230058436	149.26258405
45	21670414	469.550319994	1079.939406235
45	21687077	470.308274936	1270.980150572
45	21703095	470.740124123	148.755328238
45	21770211	472.102279126	58.413845575
45	21770238	472.102671196	145.915829334
45	21803829	472.927781127	33.204290831
45	21817915	473.244152828	285.422075993
45	21869066	474.949465298	1154.187881584
45	21935861	476.866050436	390.743904812
45	21946199	477.196334846	3914.450126119
45	22036568	479.831134953	432.155561322
45	22050530	480.545439588	1351.862316897
45	22070097	481.102119503	253.142127905
45	22095297	482.251333531	1078.199423447
45	22106303	482.564654409	279.287955425
45	22110593	482.749746657	587.069560097
45	22123980	483.42902399	441.340035821
45	22128675	483.643928545	321.384768747
45	22135560	483.948803375	1996.380153465
45	22166130	484.792041335	3121.92354034
45	22195955	485.621656008	279.224604838
45	22226644	485.969044736	1255.385987541
45	22250524	486.657245244	133.348517953
45	22382147	489.853142078	84.673877219
45	22488892	492.406203882	795.716008178
45	22491163	492.477173454	624.455227324
45	22493152	492.540188783	1414.102173207
45	22501564	492.812546346	1908.497665158
45	22577590	494.951014932	729.559738288
45	22606757	495.843935072	301.388803923
45	22704616	498.115883273	418.612759565
45	22705667	498.161413658	728.995376397
45	22706779	498.197648152	1801.609062552
45	22733324	499.000782107	1337.042288547
45	22735768	499.105793853	1853.175480554
45	22768956	499.891861882	284.638748395
45	22794686	500.350446111	149.142611786
45	22801659	500.558971124	1048.636041994
45	22824551	501.330521468	501.880609705
45	22888236	502.620131382	922.343942419
45	22951348	504.906403051	313.754263454
45	22961345	505.183179502	193.680462211
45	22975599	505.574017583	1195.041483974
45	22978255	505.6023026	456.754085382
45	23015821	506.356003924	1638.486773878
45	23020553	506.485885029	1967.10757093
45	23056368	507.192822173	253.518699749
45	23109582	507.925930213	2770.496773749
45	23168566	509.112511104	1917.802056697
45	23169522	509.121027938	979.412581848
45	23237595	510.437590293	982.368425832
45	23268394	511.168325699	177.358212368
45	23295653	512.057908706	926.010719378
45	23309968	512.282926455	1749.036943942
45	23371279	513.524208079	243.634943941
45	23371695	513.540116295	748.727040596
45	23533526	517.051487769	130.63482209
45	23545503	517.283736851	1875.413495912
45	23602949	518.679475855	987.130030785
45	23642043	519.637717241	664.100534298
45	23642831	519.684364973	180.114397436
45	23731852	522.645622895	1669.603702242
45	23732868	522.692151901	928.357970671
45	23787507	524.261454192	1808.624278225
45	23790891	524.343643459	1195.065359179
45	23802492	524.756272256	997.298794366
45	23848404	526.275562403	866.741627517
45	23855531	526.410798568	1044.39437544
45	23859220	526.447947978	101.788917859
45	23895037	526.905569332	231.586373611
45	23969017	528.758837822	239.950317084
45	24174142	534.330550322	916.17262738
45	24181771	534.735863312	3476.045918782
45	24186029	534.904925981	1216.499198857
45	24203575	535.429332996	46.329859349
45	24216332	535.97282911	603.72320485
45	24216887	536.014030691	1511.47183076
45	24224558	536.348313369	144.099808214
45	24232813	536.694504071	247.287987726
45	24249082	537.035441368	589.64914875
45	24252825	537.116088873	247.853021082
45	24275826	537.769931408	238.024910786
45	24276821	537.817150841	2126.05406627
45	24297265	538.1856135	131.996766888
45	24313083	538.482680603	677.64619958
45	24352726	538.999788626	849.716660282
45	24396181	540.044466114	1210.592303447
45	24454287	540.893343706	303.545269171
45	24473985	541.365791568	10.01709167
45	24516937	542.305690121	176.054438713
45	24526252	542.499762959	277.254255307
45	24534318	542.657396742	1238.273516904
45	24599599	543.836721395	543.43189889
45	24656571	544.796849315	236.893443688
45	24692237	545.462033213	1149.416217259
45	24721011	546.274174656	851.844009397
45	24728320	546.480312625	514.320275906
45	24758618	547.076284002	637.146857781
45	24797645	548.108722501	1454.542845677
45	24802099	548.195003098	955.660495157
45	24840900	548.944256888	1333.673359254
45	24848229	549.110454035	108.035585192
45	24864331	549.576223852	360.936822761
45	24889860	550.206606736	118.705445868
45	24931325	551.390461829	127.395618513
45	24953792	552.061965476	617.096302045
45	24973836	552.261559124	2315.69816933
45	25039716	553.562697732	368.094433758
45	25097707	554.478939893	75.465851905
45	25137601	555.300985082	770.256738038
45	25174416	556.1222982	752.02965139
45	25181064	556.247439857	697.247131319
45	25185349	556.327332417	380.695388403
45	25189389	556.453098029	491.251327162
45	25241364	557.928331588	123.046205642
45	25255963	558.48254367	1311.191714255
45	25337650	560.804094279	845.293224837
45	25359046	561.260830304	292.145088077
45	25360878	561.291985537	360.913841333
45	25387714	561.890811115	660.119422305
45	25399748	562.25666461	1000.321835783
45	25572691	564.844124247	188.605720646
45	25618243	566.007463046	1141.913038066
45	25651092	566.89304962	425.948846797
45	25675503	567.874838042	534.049810888
45	25699606	568.57392072	578.865661799
45	25700433	568.605347864	249.759714315
45	25817475	571.944921393	106.399502011
45	25845252	572.73378505	1.519301233
45	25855695	572.950794062	853.596467738
45	25871842	573.514641011	1178.922444604
45	25903024	574.681545767	1081.450438375
45	25907598	574.79261382	448.333447807
45	25936289	575.444974385	63.949443941
45	25939527	575.540674384	238.675885917
45	25943205	575.649930285	1461.093653728
45	25964680	576.070945193	172.542612052
45	25999921	576.575973156	96.453919864
45	26015521	576.858061957	807.246644643
45	26056726	577.954915707	4437.817741732
45	26066628	578.254637878	2295.417657484
45	26093368	578.677361904	1986.298994607
45	26146108	580.080226966	694.163746008
45	26185411	580.853813159	327.287117944
45	26203466	581.40906042	1875.949090871
45	26208241	581.612716459	1410.334950742
45	26252432	582.415494542	69.761637645
45	26280209	582.994456712	1110.194618585
45	26376758	585.92747384	997.383003858
45	26459004	588.126994886	921.324413268
45	26474067	588.476447896	59.873295238
45	26513291	589.717088584	387.79049156
45	26545023	590.526420425	374.506313941
45	26596746	591.638193128	753.835857914
45	26605705	591.857679311	2111.887864692
45	26645503	592.78017527	571.215234939
45	26646334	592.795962012	349.838345554
45	26662952	593.330589522	843.564935142
45	26670573	593.468093741	159.894212337
45	26678019	593.629275578	608.304509554
45	26698085	594.204999205	1153.079912622
45	26700070	594.295900121	137.425024533
45	26726661	594.884310457	589.990919994
45	26791579	595.986688818	621.796358795
45	26814012	596.366565341	371.230201388
45	26883596	597.608702075	398.066364983
45	26953203	599.150128246	1641.508471064
45	26988015	599.900491863	2559.155113419
45	26994651	600.077456089	1701.612038509
45	27010467	600.634827388	273.662195282
45	27012330	600.725892857	5549.507186607
45	27015291	600.87165444	1578.161838506
45	27039542	601.525324113	174.471605836
45	27113740	603.299890347	90.777473535
45	27115963	603.357188535	211.520946131
45	27118016	603.413741009	169.457262882
45	27130091	603.840477032	331.814268203
45	27132920	603.915794174	151.384903572
45	27188504	605.037987679	66.881389731
45	27251566	606.058662443	313.649593365
45	27291199	607.111538556	1644.779141792
45	27324890	607.672088697	918.09119184
45	27431601	610.530805122	283.718093015
45	27501274	612.424455987	130.424162431
45	27505631	612.629328149	788.672147091
45	27509633	612.833776142	1441.930881002
45	27626632	616.698547334	397.984249007
45	27670005	617.864303212	439.69087055
45	27702974	618.681122691	745.726986626
45	27704494	618.708880802	486.473321438
45	27720161	619.127799144	811.748406899
45	27720610	619.152907091	2416.812936712
45	27749338	619.869302702	189.273461996
45	27775874	620.54890418	1265.932889516
45	27780188	620.655061851	1582.382864047
45	27798419	621.141656127	56.329661099
45	27890131	623.115121763	928.083820961
45	27901278	623.501915258	192.625315193
45	27912677	623.828787019	2198.755280477
45	27965112	625.340148484	1078.091516416
45	27977956	625.655349045	270.797493303
45	27999815	626.453189962	312.764960545
45	28004499	626.638141545	123.174726006
45	28007445	626.76248089	408.75129992
45	28059964	628.357452508	263.676698999
45	28063661	628.40453236	357.500885678
45	28085570	628.687095266	763.753857951
45	28108535	628.966042137	130.839367037
45	28212020	632.153636992	1283.14237228
45	28214690	632.250461285	613.976999419
45	28223985	632.543510503	28.723541636
45	28230436	632.767707693	4256.234970203
45	28230903	632.789082816	653.631887996
45	28267167	633.549758153	273.006599508
45	28282255	634.067761058	880.407080299
45	28386488	636.395181067	13.943159962
45	28440622	637.925913387	1241.378641801
45	28442412	637.99357946	428.776317999
45	28475804	638.984279972	2131.854843917
45	28486080	639.515003537	702.001144487
45	28548064	640.723094954	1325.965463513
45	28560697	641.0582224	1604.924177393
45	28572000	641.479518815	1318.335538596
45	28592724	642.202592213	1633.994851513
45	28756827	646.535789728	1231.979084077
45	28788372	647.508877841	868.029922716
45	28814184	648.274036684	628.801962214
45	28845306	648.974158759	405.699025289
45	28855526	649.168942592	589.731933109
45	28877176	649.673117448	1740.975925676
45	28927047	650.782201361	1293.113181337
45	28936087	650.92808341	228.613675568
45	28949377	651.157399326	657.578127016
45	28974498	651.865175226	276.927839815
45	28995077	652.400309425	196.476890162
45	29018399	653.19016147	315.761735516
45	29052726	654.213285541	596.67474578
45	29131509	656.095729676	526.213699433
45	29147196	656.431775108	98.138933748
45	29147682	656.446181972	1261.158344251
45	29213405	658.086040306	185.797110716
45	29246322	658.990701733	236.896738448
45	29303263	660.589404377	342.865895563
45	29311694	660.871138518	439.062998742
45	29312647	660.896958269	1559.342069561
45	29374902	662.75124188	43.864148599
45	29420443	664.037167127	384.698576622
45	29472991	665.237297384	1616.856921734
45	29483753	665.479732662	1402.682198721
45	29493078	665.623478743	38.198503191
45	29530944	666.493794761	1047.77415012
45	29619229	668.352434973	417.194807102
45	29624009	668.61948004	1144.593236357
45	29627993	668.811632977	110.850296412
45	29633235	668.958408851	349.998347726
45	29636124	669.028726237	477.300681065
45	29644681	669.224047428	638.561284019
45	29770676	672.305990964	1201.49193074
45	29784972	672.736869133	1227.057073743
45	29877081	674.990575949	1280.617904716
45	29889095	675.26758952	1780.709974017
45	29908477	675.604726079	432.170201173
45	29949200	676.715395634	3204.146980236
45	29983492	677.780450232	868.485540304
45	30048472	678.80008177	805.184511507
45	30057467	678.998703968	108.617567337
45	30058335	679.022578403	731.089866673
45	30085991	680.021451853	711.517898176
45	30146938	681.313659029	2078.877307325
45	30189885	683.032053768	1251.044701417
45	30190557	683.057813967	609.245051892
45	30192954	683.151396987	320.90604523
45	30255977	685.027977646	603.521817369
45	30275070	685.584628171	1957.962270633
45	30292743	686.178666161	1035.699364296
45	30367844	688.458864405	1593.309530969
45	30395240	689.663133809	469.936252093
45	30424611	690.233841052	489.937838219
45	30466372	691.505540158	1275.447761027
45	30517159	692.209111997	4404.53321923
45	30538361	692.883285465	476.563489279
45	30602146	694.447420808	292.394380052
45	30620845	694.918506976	262.700459016
45	30621403	694.939513003	1786.944955768
45	30646029	695.453801361	926.928016773
45	30750683	697.945337907	2370.42695182
45	30759704	698.171123325	492.524277293
45	30764011	698.27897943	109.473506085
45	30775062	698.567470171	681.772480672
45	30800706	699.169929906	183.02625012
45	30815068	699.389112974	228.944361247
45	30871501	700.368672612	57.057104287
45	30924462	701.501234816	434.604991453
45	30986380	702.825216082	1535.799073301
45	31029546	703.712417843	2158.42886669
45	31168267	706.683463237	527.921970594
45	31204260	707.684758413	1242.811034603
45	31221275	708.016220497	50.214844367
45	31230262	708.34061868	1740.53819198
45	31231226	708.383307861	112.431585544
45	31234042	708.523814021	90.862300401
45	31256110	709.425303314	251.510309377
45	31264924	709.577366353	503.115187634
45	31282014	710.036029261	1063.505359339