version 2
run PastryDHT-1-20211207-11:57:44-4660
attr Lifetime 200s
attr configname PastryDHT
attr datetime 20211207-11:57:44
attr experiment PastryDHT
attr inifile configs.ini
attr iterationvars $Lifetime=200s
attr iterationvars2 "$Lifetime=200s, $repetition=0"
attr measurement $Lifetime=200s
attr network oversim.underlay.simpleunderlay.SimpleUnderlayNetwork
attr processid 4660
attr repetition 0
attr replication #0
attr resultdir results
attr runnumber 1
attr seedset 1

vector 7  SimpleUnderlayNetwork.globalObserver.globalStatistics  "GlobalNodeList: Number of nodes"  ETV
vector 8  SimpleUnderlayNetwork.globalObserver.globalStatistics  "GlobalDhtTestMap: Number of stored DHT entries"  ETV
vector 9  SimpleUnderlayNetwork.globalObserver.globalStatistics  "LifetimeChurn: Session Time"  ETV
vector 10  SimpleUnderlayNetwork.globalObserver.globalStatistics  "LifetimeChurn: Time between creates"  ETV
vector 11  SimpleUnderlayNetwork.globalObserver.globalStatistics  "LifetimeChurn: Time between deletes"  ETV
7	18079165	200	1025
7	24955975	250	1045
7	32550625	300	1030
7	40347749	350	1034
7	48037186	400	1007
7	56129784	450	1035
7	64933700	500	1060
7	73388735	550	1071
7	81666725	600	1042
7	90035867	650	1051
7	98238823	700	1044
7	106305959	750	1045
7	114801495	800	1069
7	122716449	850	1036
7	130787118	900	1055
7	139065345	950	1067
7	147806085	1000	1089
7	156577159	1050	1073
7	164652740	1100	1035
7	172817270	1150	1041
8	18079166	200	1293
8	19383983	210	1441
8	20662293	220	1582
8	22104632	230	1708
8	23475525	240	1853
8	24955976	250	1986
8	26540975	260	2128
8	28022463	270	2246
8	29450180	280	2391
8	30986659	290	2535
8	32550626	300	2667
8	34090243	310	2811
8	35487918	320	2952
8	37008092	330	3088
8	38579541	340	3210
8	40347750	350	3352
8	42041805	360	3478
8	43553217	370	3606
8	45061989	380	3739
8	46520528	390	3883
8	48037187	400	4007
8	49542275	410	4046
8	51086228	420	4082
8	52797728	430	4070
8	54517303	440	4085
8	56129785	450	4068
8	57882868	460	4056
8	59701750	470	4073
8	61436363	480	4095
8	63177885	490	4095
8	64933701	500	4097
8	66659524	510	4096
8	68229375	520	4092
8	70037491	530	4104
8	71740934	540	4092
8	73388736	550	4117
8	75238015	560	4122
8	76973514	570	4147
8	78535504	580	4147
8	80201453	590	4125
8	81666726	600	4157
8	83301126	610	4141
8	84929709	620	4155
8	86599944	630	4162
8	88314663	640	4167
8	90035868	650	4171
8	91569478	660	4176
8	93345672	670	4182
8	94993975	680	4199
8	96673601	690	4186
8	98238824	700	4208
8	99872108	710	4221
8	101473072	720	4229
8	102943695	730	4237
8	104631923	740	4235
8	106305960	750	4199
8	108003540	760	4225
8	109502295	770	4224
8	111274217	780	4220
8	113183280	790	4231
8	114801496	800	4219
8	116468259	810	4207
8	118079047	820	4210
8	119707895	830	4214
8	121219096	840	4229
8	122716450	850	4210
8	124120954	860	4218
8	125742429	870	4203
8	127428501	880	4199
8	129005262	890	4217
8	130787119	900	4195
8	132390109	910	4192
8	134093059	920	4176
8	135862803	930	4190
8	137437752	940	4204
8	139065346	950	4198
8	140688218	960	4207
8	142429129	970	4205
8	144317469	980	4216
8	146039520	990	4232
8	147806086	1000	4215
8	149530450	1010	4212
8	151334960	1020	4206
8	153096400	1030	4223
8	154841085	1040	4209
8	156577160	1050	4241
8	158226224	1060	4240
8	159844535	1070	4260
8	161333740	1080	4263
8	162944836	1090	4255
8	164652741	1100	4254
8	166234124	1110	4260
8	167916461	1120	4267
8	169512716	1130	4269
8	171079230	1140	4248
8	172817271	1150	4259
8	174563364	1160	4231
8	175967468	1170	4246
8	177445967	1180	4265
8	179165183	1190	4206
9	18110067	200.276550078	70.542567365
9	18112493	200.312258736	178.414811357
9	18122239	200.402223364	372.08476536
9	18127367	200.445275118	73.65728321
9	18131940	200.478964175	28.344422615
9	18148511	200.621256296	15.307828799
9	18188069	201.087325418	110.481479717
9	18189175	201.100997401	27.929619835
9	18190928	201.122340416	32.306122004
9	18190946	201.122396774	59.93368758
9	18232591	201.513708026	169.327097125
9	18304261	201.956349679	409.143181842
9	18314131	202.015272576	841.093493113
9	18388632	202.630726813	428.502153936
9	18397233	202.677333116	309.063640136
9	18424879	202.925677527	54.73244152
9	18449308	203.087023093	117.078012941
9	18482188	203.389935013	126.927127914
9	18504134	203.570686986	152.147040957
9	18568870	204.089551412	36.805335539
9	18600432	204.337841865	69.146745438
9	18626796	204.485869868	377.496390914
9	18682425	204.865654065	5.400843791
9	18685487	204.895951769	568.90099358
9	18747718	205.52331839	442.273358376
9	18776650	205.801772618	54.944649082
9	18800241	205.986197448	155.984899673
9	18813783	206.085115833	798.775611986
9	18848713	206.300564525	48.205706303
9	18854070	206.339249094	240.586908144
9	18916762	206.747799205	49.143607131
9	18917157	206.749997339	277.696019954
9	18920525	206.774557083	484.567158046
9	18933646	206.879559988	30.462724176
9	18980588	207.264067093	809.007398343
9	18985157	207.302036843	127.809885347
9	19002318	207.447952685	229.009485818
9	19160977	208.416570376	218.455625719
9	19162330	208.427769255	83.008698057
9	19168935	208.475053784	108.941175832
9	19177638	208.540013894	251.139661619
9	19181295	208.581342482	192.734566119
9	19190374	208.667875725	374.564733374
9	19192704	208.688682803	170.570656905
9	19240007	208.984332641	270.912264734
9	19240970	208.988218348	420.845198123
9	19254935	209.072913767	40.650373626
9	19295270	209.327738417	179.820616282
9	19310796	209.448489596	154.113475741
9	19334919	209.613979081	12.248125168
9	19448707	210.524032485	238.344811655
9	19487783	210.791038867	340.94183805
9	19501187	210.87240769	15.81244695
9	19501808	210.875913078	20.947823197
9	19580316	211.545745504	136.708514841
9	19592266	211.657756079	274.96933892
9	19613984	211.839515176	640.823337921
9	19628995	211.939748913	122.121054713
9	19679618	212.412519578	123.192885879
9	19700634	212.578614586	90.53980308
9	19702716	212.589390001	57.856664062
9	19730633	212.781673986	86.937358003
9	19756682	212.937271824	142.718997097
9	19761797	212.97269459	609.759199587
9	19785585	213.219548305	223.866913609
9	19793599	213.321347986	107.818944646
9	19819112	213.605865807	554.456323843
9	19823728	213.669325149	16.268732682
9	19825196	213.688239075	507.706709889
9	19854218	213.901935075	269.191313539
9	19895238	214.193449062	61.235641504
9	19896129	214.200783217	472.657287747
9	19967505	214.768165591	267.252077748
9	19982436	214.872639467	59.652363887
9	20002817	215.008363106	202.004807017
9	20025803	215.202381032	32.125782238
9	20039155	215.340752588	120.899527537
9	20041495	215.359220278	183.485593265
9	20082604	215.712701197	321.35791053
9	20095263	215.823468253	123.571204792
9	20129844	216.077732651	160.402223769
9	20130621	216.084387861	381.614663402
9	20152297	216.329948529	340.600035359
9	20164776	216.422850156	156.413269401
9	20168387	216.447049401	718.041335209
9	20267364	217.005771412	174.393068521
9	20285067	217.113310362	182.639447739
9	20339471	217.561430785	49.079187342
9	20409378	218.159351451	53.109487038
9	20472592	218.670642336	266.392973585
9	20482061	218.728154341	151.301518578
9	20495715	218.802872196	15.238928611
9	20496352	218.804823895	13.194712016
9	20543514	219.108747667	70.080104673
9	20545626	219.118865685	96.546274005
9	20564561	219.266967387	16.250359268
9	20631654	219.705500626	92.066953387
9	20642405	219.801451225	75.403666389
9	20681410	220.198631025	14.177016466
9	20707392	220.443797406	361.797409923
9	20717860	220.542804849	37.142259798
9	20744922	220.81090723	245.682922574
9	20750452	220.871659035	167.690705305
9	20767968	221.009918127	478.236459248
9	20794241	221.210268841	146.974522184
9	20832548	221.50244362	45.35475245
9	20832980	221.50693893	94.997954869
9	20852843	221.630155704	171.819587526
9	20878594	221.814477522	482.720254467
9	20915870	222.116559729	124.350109803
9	20918396	222.142764193	3.029815031
9	20923032	222.193494229	48.984801449
9	20923907	222.20145015	56.83388782
9	20941367	222.349277883	80.618215856
9	20971956	222.535110543	209.481690064
9	20982986	222.62217191	421.15839054
9	20987353	222.659535588	84.3137685
9	21029158	223.064980502	446.400311857
9	21029747	223.068884229	4.351969139
9	21037921	223.13350229	73.855745558
9	21046081	223.221203555	796.814140193
9	21088250	223.574564967	86.453392436
9	21110699	223.69970706	73.858788673
9	21116419	223.729406501	308.82440372
9	21131423	223.823164686	22.228526472
9	21150206	223.994484436	68.785572714
9	21177139	224.225257519	191.147807481
9	21243089	224.559027909	40.919077456
9	21270974	224.750826993	469.913821775
9	21322052	225.024754299	351.041597228
9	21404261	225.616508784	326.06295624
9	21425420	225.740190344	17.851536986
9	21455084	225.943623148	1071.917234484
9	21466627	226.053275373	160.342117721
9	21481993	226.17404896	60.873923901
9	21543336	226.458716169	176.03140251
9	21598839	226.741102561	90.842306934
9	21604298	226.779156748	32.62662461
9	21689624	227.278686597	16.689577747
9	21701263	227.373011661	483.701359481
9	21718421	227.497164364	525.203047179
9	21848003	228.316352749	238.378491755
9	21867254	228.42888499	72.630025568
9	21870882	228.445011462	37.351489312
9	21904071	228.609286748	603.31366907
9	21924760	228.739701706	84.422337204
9	21925064	228.741099146	101.268943946
9	21959957	228.978008685	130.949210267
9	21971662	229.090583471	183.447246775
9	21975581	229.124651902	46.44485091
9	21994866	229.243374431	269.682857368
9	22040271	229.53064276	107.701349453
9	22059438	229.688684373	312.485601499
9	22064024	229.716746046	290.872986995
9	22083053	229.847292274	416.53553886
9	22101840	229.973251733	74.681084601
9	22107757	230.034403618	24.335609779
9	22123551	230.160052658	52.588281426
9	22127897	230.190158532	170.766070921
9	22134241	230.239966731	78.848652778
9	22157026	230.439659428	528.193932461
9	22210492	230.809497505	235.971662299
9	22218567	230.868187339	55.301817588
9	22221225	230.892315575	42.877086501
9	22255375	231.205624149	14.468117614
9	22398685	232.193433897	109.890231851
9	22403460	232.231068097	104.222978856
9	22426271	232.399908653	163.21171238
9	22437592	232.495835225	22.112272171
9	22515943	233.093202653	242.483695389
9	22545655	233.394134964	573.285777874
9	22595365	233.772323506	278.777411546
9	22598662	233.800604966	196.398188807
9	22599740	233.813969492	150.653992722
9	22601676	233.831303139	5.039375446
9	22603039	233.847438128	289.576981293
9	22714443	234.493451774	1111.491918694
9	22715232	234.498379228	83.769427419
9	22759301	234.768355879	27.055419279
9	22768202	234.836878535	1798.706958333
9	22822620	235.19571035	349.25687815
9	22893414	235.872364738	237.095747749
9	22965172	236.373775629	68.017578912
9	23006933	236.692625993	32.670413547
9	23013004	236.752193598	159.073541819
9	23046337	236.980958527	222.61414149
9	23058095	237.054907885	46.156360333
9	23093984	237.294938151	36.31158337
9	23100151	237.334715023	185.736881445
9	23113134	237.443950338	43.576869158
9	23117824	237.487831048	216.701459679
9	23124278	237.548282811	117.283444793
9	23130509	237.611341751	182.144948453
9	23135317	237.657555579	93.747938533
9	23183660	238.035884823	155.300160846
9	23255682	238.66674381	112.578534017
9	23263969	238.717819151	547.145283045
9	23286175	238.877418355	5.670841863
9	23335722	239.130709916	88.658291355
9	23344622	239.163468677	86.046159237
9	23367503	239.250400978	192.858781707
9	23373395	239.285001134	152.565206592
9	23422786	239.556709491	36.738617921
9	23445638	239.722294767	964.212485536
9	23471155	239.956541602	16.974659195
9	23481272	240.038191201	101.896625377
9	23536005	240.445322421	3.647246159
9	23545683	240.51857342	870.131116705
9	23547292	240.53178566	229.817625033
9	23555779	240.588031336	207.285881379
9	23567838	240.659294319	475.147394221
9	23595046	240.777534451	474.477459692
9	23596496	240.787030965	829.041473458
9	23596943	240.791006719	4.118454314
9	23608876	240.878125482	17.101676159
9	23623151	240.939534455	97.747158806
9	23651387	241.097049904	433.480202275
9	23681746	241.278169134	43.463539323
9	23742915	241.721410358	18.189776209
9	23798025	242.088137991	330.117565214
9	23799130	242.097099014	139.89286843
9	23806293	242.148464822	559.946654258
9	23823725	242.271500842	180.906910031
9	23852344	242.454754107	5.757697733
9	23913102	242.803787433	17.02967269
9	23942304	242.970909666	10.60574839
9	23950963	243.02615461	21.819327869
9	23996226	243.359115857	122.326284775
9	24046253	243.759348186	318.505025867
9	24086550	243.985868921	31.234917958
9	24153778	244.324190187	24.354428951
9	24196761	244.62364282	592.109707714
9	24220622	244.810642087	163.522947881
9	24220876	244.812264927	192.473497455
9	24225462	244.842409603	520.130321259
9	24233546	244.883690781	527.831419945
9	24253657	245.031355103	77.434581396
9	24263083	245.091553636	208.570995488
9	24264935	245.102553329	39.425322925
9	24279205	245.21726541	197.500875255
9	24321759	245.591518185	260.263438741
9	24374364	245.950474594	161.547229734
9	24403009	246.109241073	13.319916212
9	24413892	246.158927589	102.864312978
9	24436079	246.286403269	247.845044311
9	24440759	246.320177755	248.629201809
9	24450565	246.382437099	9.056447261
9	24466245	246.501378313	28.379568852
9	24540916	247.075566407	1212.109672424
9	24610027	247.650354295	31.083627326
9	24622892	247.767844667	11.952283021
9	24644954	247.926822058	117.848400005
9	24682618	248.136433364	146.282453446
9	24738960	248.513300418	21.972486701
9	24747730	248.577081996	54.439451339
9	24766386	248.674579856	245.57739147
9	24807795	248.870998083	77.177627755
9	24841210	249.139953194	312.656434143
9	24862960	249.304869628	286.038608133
9	24883943	249.452814795	95.128441294
9	24893095	249.495830911	156.046432841
9	24896472	249.516215821	249.175881862
9	24898233	249.527033399	592.869899645
9	24916750	249.669355673	50.12012905
9	24926369	249.756548704	172.850660551
9	24934407	249.83496199	549.720863198
9	24936238	249.848093771	226.104332938
9	24955246	249.993784177	242.416432298
9	25033735	250.512694884	343.184778452
9	25054670	250.609794992	17.635274696
9	25056142	250.616473487	87.610025505
9	25059050	250.632343648	63.478789378
9	25091355	250.815628001	83.751826211
9	25152728	251.30278879	800.153873398
9	25163453	251.371647589	198.771023659
9	25181920	251.461322431	78.170250571
9	25232479	251.783758922	425.637905874
9	25278869	252.123496231	226.159284271
9	25301454	252.252043376	148.649970236
9	25374418	252.648420488	212.709537482
9	25420464	252.87594167	331.610843585
9	25421084	252.878779283	41.16833345
9	25459994	253.133386864	66.942341739
9	25478869	253.25588572	10.910793003
9	25567988	253.789309135	17.814968544
9	25573434	253.820858757	261.537546311
9	25573704	253.822067119	114.898295255
9	25665014	254.333911585	68.974154694
9	25726712	254.628901407	86.810361843
9	25753029	254.747650051	560.926690668
9	25793793	254.924671688	726.601228401
9	25814969	255.081539478	20.704968689
9	25823851	255.16632751	103.287834391
9	25892696	255.600633503	307.173335917
9	25897088	255.64080713	124.892862539
9	25914743	255.793693492	176.5902829
9	25925907	255.868539493	48.188233698
9	25980492	256.164581403	139.661326142
9	25980933	256.168234666	27.306755
9	25994404	256.280843592	327.076093695
9	26050195	256.547247891	82.926417017
9	26073996	256.649143396	297.663959419
9	26092752	256.750379492	193.00359204
9	26158315	257.178446581	415.014916489
9	26166256	257.23598108	26.942270885
9	26176134	257.317371604	45.514755649
9	26260432	257.962810581	987.474201539
9	26287468	258.16059052	478.721037579
9	26318291	258.383609178	17.39780051
9	26326819	258.430417959	42.886330732
9	26360931	258.633926904	48.82676463
9	26464167	259.358396477	47.428101659
9	26472200	259.437460422	469.883246537
9	26482071	259.505968905	248.522411695
9	26497767	259.644420458	28.531823472
9	26518263	259.824973387	633.501743653
9	26534247	259.959288407	55.676831897
9	26589309	260.317286997	35.881793748
9	26604234	260.428130453	524.132455891
9	26649956	260.732305108	229.182457358
9	26659935	260.797735168	54.220846729
9	26673322	260.890421259	248.953717793
9	26680035	260.935782239	51.798922719
9	26694991	261.04738518	198.114501887
9	26725767	261.290719865	212.083451284
9	26727684	261.301685554	139.074538471
9	26831823	261.916392764	37.165352178
9	26878415	262.209382887	132.1660555
9	26916274	262.477038645	123.464643717
9	26922076	262.521064745	2.281535244
9	26926284	262.557917691	286.881483006
9	26942311	262.662221556	1.951003891
9	26960336	262.808953348	37.251630932
9	26977683	262.920082305	11.957842624
9	26988667	262.999467231	138.174218752
9	26991168	263.012925393	147.672196954
9	27014316	263.223312014	67.211137794
9	27053640	263.532289193	266.983292489
9	27064433	263.601462275	122.204642201
9	27085571	263.725321885	141.473928908
9	27107942	263.877254567	164.380270578
9	27140356	264.165662192	179.023094793
9	27179154	264.414187347	118.160440859
9	27182103	264.437157675	109.901416345
9	27229104	264.799862318	166.786500198
9	27240986	264.860375394	194.529559119
9	27260213	264.963912469	70.798778763
9	27306828	265.263206065	664.380544841
9	27314152	265.311423488	124.806213335
9	27347764	265.58497764	167.081491653
9	27357870	265.669900509	183.748923411
9	27376822	265.827223264	432.968031313
9	27390421	265.978511417	398.684340878
9	27413940	266.1634789	32.677899318
9	27473473	266.493367738	350.621340246
9	27484909	266.553827725	22.299657642
9	27486466	266.561626924	83.258523652
9	27499100	266.620896616	143.101615153
9	27510453	266.691430793	54.852101591
9	27542714	266.901613241	10.967818744
9	27570180	267.082284317	54.15403889
9	27579112	267.133950839	299.700277641
9	27597150	267.27350443	49.201782564
9	27628608	267.464191858	241.27917352
9	27770299	268.351988842	229.017337899
9	27778148	268.399283826	87.624455539
9	27899605	269.269317507	107.792930986
9	27915268	269.387230168	133.571497654
9	27916440	269.395614429	47.618424706
9	27996653	269.823403269	99.18811499
9	28027676	270.04830703	234.923366712
9	28129298	270.824858646	552.506702348
9	28171712	271.10485975	90.344517029
9	28188710	271.208338643	89.225039201
9	28205270	271.326536077	156.062797002
9	28210003	271.354341767	369.597160146
9	28281854	271.743689098	316.917278199
9	28286994	271.779911299	542.344823769
9	28299352	271.866013369	11.264155553
9	28349247	272.268426604	85.460199242
9	28376140	272.44308079	119.2936798
9	28389213	272.544736035	575.413849112
9	28405185	272.70284157	197.954696415
9	28429303	272.879346714	603.250727326
9	28483534	273.139035445	190.150569562
9	28505508	273.236703828	238.956777281
9	28622710	274.148272028	558.43325703
9	28634758	274.252675142	162.173435349
9	28634963	274.253663044	14.336349385
9	28651148	274.375657254	27.039237413
9	28665072	274.469113702	115.283751608
9	28699588	274.713924109	277.338978466
9	28712154	274.824192203	208.698155575
9	28771199	275.14424874	38.406546807
9	28776253	275.179517739	252.51358939
9	28812327	275.437936039	65.21208935
9	28856452	275.865357315	195.457990769
9	28860551	275.893151579	231.95508801
9	28891849	276.068541498	7.036589316
9	28899390	276.120925125	49.237981648
9	28936755	276.387499668	100.617278208
9	28965942	276.598731853	600.791304051
9	29013790	276.909066263	100.646498653
9	29020494	276.957788404	260.850184654
9	29082369	277.448957178	467.044510406
9	29117452	277.75453807	310.167051714
9	29181391	278.159125709	219.902225037
9	29246780	278.573709987	233.853523886
9	29297196	278.916052703	93.446721914
9	29297824	278.919847393	101.502104696
9	29324813	279.119984049	416.511253813
9	29355556	279.290525295	0.833658034
9	29374573	279.395274002	5.204775898
9	29384814	279.470031425	301.861643667
9	29457639	280.05600535	310.862799009
9	29469301	280.152097126	21.89931435
9	29471073	280.168285757	274.881398196
9	29474512	280.203581723	352.209619682
9	29478017	280.236036622	79.564458427
9	29508697	280.46406934	120.531289692
9	29537427	280.634636558	0.83929291
9	29541721	280.656248758	258.163264969
9	29544296	280.667087505	357.168693237
9	29563504	280.744024587	1.473392633
9	29604686	281.010208108	125.552044465
9	29605376	281.015943741	1.468088961
9	29617480	281.121633863	541.217432657
9	29684450	281.569650691	331.251058683
9	29699819	281.707954439	184.23671917
9	29703051	281.738291737	329.596566675
9	29705859	281.761568132	47.883702264
9	29721656	281.871097899	55.706177309
9	29821529	282.482916638	27.005458967
9	29893855	282.840678509	10.238227007
9	29904734	282.886428702	40.097623643
9	29979745	283.343495514	283.640484453
9	29994377	283.47514143	176.041578946
9	30005839	283.573779062	109.961193292
9	30025266	283.735840918	426.447821722
9	30035317	283.797784063	87.982446403
9	30039076	283.824967157	54.012280502
9	30061870	283.975848515	389.615337687
9	30070403	284.018282513	24.553572461
9	30096075	284.166925664	61.806322186
9	30132340	284.395255256	123.462765926
9	30150200	284.489857804	310.683549545
9	30166651	284.579003608	293.634931141
9	30183055	284.695968361	74.145153469
9	30201746	284.807671021	282.015585322
9	30207672	284.854277877	179.160128593
9	30241184	285.022714807	200.490032735
9	30307560	285.425087928	36.532705262
9	30314044	285.476100079	53.149639538
9	30371440	285.82618112	191.779670671
9	30396324	285.987693671	219.679766738
9	30452537	286.421073271	18.277335613
9	30539783	287.069991739	475.88488929
9	30551664	287.164866881	238.902558827
9	30551728	287.165288655	113.606215365
9	30589575	287.445202774	207.804944696
9	30593469	287.486728858	443.76077405
9	30613244	287.650443205	265.292139073
9	30617666	287.673356551	68.535530514
9	30644011	287.840262612	327.21053911
9	30681177	288.104442027	47.50605817
9	30684308	288.136051416	275.67038107
9	30796796	288.84643917	173.367946592
9	30896711	289.49795857	85.667450828
9	30900047	289.516211338	19.694711873
9	30920235	289.65450857	380.218677554
9	30940894	289.771056104	374.606459033
9	30975901	289.949446012	123.825041627
9	30991834	290.027112875	143.566858836
9	31010075	290.138083673	208.570692796
9	31026014	290.240946951	38.881796663
9	31091538	290.665867615	29.82205275
9	31166035	291.179286705	329.962497634
9	31184275	291.268585343	179.02127483
9	31214223	291.371033481	277.478637341
9	31230971	291.444387649	31.927597349
9	31261595	291.593943087	51.161588891
9	31395462	292.37532136	283.834324134
9	31453585	292.828683927	72.20894901
9	31484796	293.052062572	158.13197655
9	31525842	293.299418623	60.821491966
9	31536944	293.349504383	113.143182541
9	31595903	293.711581771	24.476014084
9	31597346	293.72115533	120.499981329
9	31613500	293.84095071	462.006978013
9	31629374	293.959057942	171.39119361
9	31677764	294.347754785	116.974214603
9	31691641	294.464441654	86.236233489
9	31716881	294.61000353	91.473279326
9	31732629	294.686871549	693.215339653
9	31740618	294.737643348	229.3391106
9	31745749	294.772255359	348.174002743
9	31746759	294.780609219	36.16560967
9	31750357	294.805388038	8.041835278
9	31755420	294.834769096	363.7897965
9	31784308	294.986385395	104.270564674
9	31822037	295.237602502	122.596338197
9	31856149	295.488126289	450.590143557
9	31865312	295.575343445	54.294663135
9	31886564	295.728847795	62.019924377
9	31912063	295.904669625	29.143247606
9	31950232	296.174166864	588.113149191
9	31956326	296.225373951	350.208352469
9	32067942	296.889499682	329.821759755
9	32122068	297.193525706	181.074081579
9	32164488	297.478669589	24.299855544
9	32184287	297.627021983	127.663272888
9	32198084	297.734456933	32.756774038
9	32205087	297.777998627	23.714933712
9	32206495	297.784693336	173.101249814
9	32206544	297.784775958	136.889581289
9	32220303	297.869045035	141.861627952
9	32228202	297.911246301	667.818628919
9	32267150	298.126394306	123.904789731
9	32276588	298.195936834	77.193286132
9	32291130	298.283000396	81.448597127
9	32324614	298.491393531	36.507828079
9	32365790	298.787107647	100.136779999
9	32453351	299.394364295	1.703884963
9	32465869	299.469286688	546.176264889
9	32516051	299.772297878	222.08953633
9	32562224	300.056630993	463.027932919
9	32566650	300.073275521	146.048874282
9	32571502	300.092350583	147.540414899
9	32576139	300.113831316	38.175479142
9	32608289	300.26943268	36.311205132
9	32616074	300.320502656	276.542379032
9	32626479	300.388951917	112.985612235
9	32631673	300.420614911	7.273890139
9	32729499	301.149502617	141.813109642
9	32782311	301.480735677	442.510101925
9	32800484	301.619236479	273.74052928
9	32836351	301.871741146	149.546378998
9	32951413	302.514913892	92.549098313
9	32957177	302.563553939	266.522711263
9	32988643	302.837715733	10.204381077
9	33059120	303.32341198	403.198149344
9	33099514	303.609547613	28.407216947
9	33120422	303.737963259	0.314003633
9	33132549	303.81940206	101.14329454
9	33216862	304.279148453	137.480038993
9	33263005	304.698512518	146.842989866
9	33302985	304.970385406	16.940971279
9	33314809	305.055167968	79.357786502
9	33325765	305.140090904	126.019413654
9	33343905	305.253030349	409.199147502
9	33357986	305.339896449	523.224210222
9	33358567	305.344436013	11.248610991
9	33371782	305.43081606	76.705299284
9	33433518	305.901170592	269.979596546
9	33485730	306.197534456	29.667336633
9	33546500	306.589565484	393.664933251
9	33547307	306.595895091	88.214422447
9	33610809	306.940019123	142.946048013
9	33660584	307.175752013	187.456720864
9	33685720	307.318828155	7.993090076
9	33692323	307.36571253	2.434104505
9	33696267	307.394002563	161.975198135
9	33698750	307.413090602	301.480856196
9	33736184	307.65640596	156.959308186
9	33743201	307.708767192	82.189432432
9	33746446	307.742932048	478.140426396
9	33781374	308.027807074	84.142175673
9	33887663	308.680899988	208.483141663
9	33955177	309.066678548	353.306985365
9	33958682	309.088651136	51.495547331
9	33990727	309.296218366	36.660652996
9	34001595	309.398754088	8.026992952
9	34023577	309.565219208	383.172308677
9	34100201	310.057455536	350.625558084
9	34118399	310.192057551	363.451176887
9	34121147	310.213614479	177.524781068
9	34121542	310.216181807	130.694510667
9	34165335	310.594144447	560.937883817
9	34193628	310.762726101	29.300658985
9	34250334	311.205658407	159.584837725
9	34297526	311.531231684	240.131465621
9	34330647	311.794565988	62.650869658
9	34384110	312.304437829	133.912257052
9	34389750	312.362657463	754.407086635
9	34414380	312.579150434	388.566471576
9	34414810	312.582916598	167.477940714
9	34415310	312.586757942	43.607382544
9	34469019	312.999552488	14.323990291
9	34531347	313.443189158	73.045699311
9	34565705	313.664962505	91.595179149
9	34700703	314.673448552	264.170593553
9	34791774	315.287523673	567.016684767
9	34849970	315.744120515	344.301547545
9	34900992	316.086840944	5.102328269
9	34909910	316.169355391	5.174948489
9	35019186	316.960561415	85.600864133
9	35063419	317.202090388	278.090079922
9	35078184	317.292364177	288.810537279
9	35118672	317.585836927	10.981341685
9	35118914	317.588632649	66.591261379
9	35138915	317.761576253	3.433715759
9	35142001	317.78095842	54.461660042
9	35158507	317.875165866	33.53025437
9	35163208	317.903781659	535.90985883
9	35170658	317.940055965	66.232150153
9	35183260	318.006628303	9.281203955
9	35184710	318.013409403	158.031548613
9	35199906	318.096731846	142.356241587
9	35210421	318.161550856	583.539179202
9	35214576	318.189881658	10.604480823
9	35218984	318.21861423	116.315719122
9	35264879	318.471963	224.096882333
9	35286845	318.622330346	631.955495918
9	35300314	318.737405355	321.706589966
9	35311508	318.825486386	202.529418251
9	35313784	318.843080345	326.782850109
9	35347826	319.060253029	428.667214234
9	35413756	319.460244045	72.620610819
9	35414075	319.462132503	113.280451273
9	35494811	320.047610432	146.720271063
9	35508151	320.123131897	1115.549820467
9	35515186	320.174696715	804.705466441
9	35524772	320.237247788	101.795863545
9	35530467	320.273250081	15.227522083
9	35598482	320.693307414	66.416508029
9	35637351	320.935239268	238.63728274
9	35647341	321.002884912	66.387213348
9	35647498	321.004518913	111.448145291
9	35679045	321.219669072	324.106253454
9	35679542	321.222752314	46.396515736
9	35686050	321.254832858	231.55072805
9	35690998	321.281705669	161.549473842
9	35722618	321.520673507	60.037147956
9	35736018	321.664659327	14.043066229
9	35810808	322.171009238	9.770486918
9	35831082	322.325686768	197.960685086
9	35879751	322.698225461	304.013860912
9	35923543	322.989744652	755.463307088
9	35952196	323.249235578	251.862994118
9	35952425	323.250392396	284.066084278
9	35959203	323.285470221	550.78985334
9	35981468	323.432525708	42.015734605
9	36040430	323.905926213	127.262930864
9	36052527	323.993633041	22.881908186
9	36084689	324.270636011	72.1070968
9	36196512	324.933758461	467.171918121
9	36236207	325.202612741	105.068965559
9	36296060	325.557334334	36.271624143
9	36306309	325.657858666	46.235328795
9	36315405	325.731324201	528.564949842
9	36343258	325.929919028	254.570735095
9	36344304	325.938556503	147.946833205
9	36392505	326.192422301	210.362182192
9	36402367	326.253776664	20.596220396
9	36482074	326.705316018	306.244814481
9	36483561	326.711132593	33.534784996
9	36516867	326.875023884	436.948078156
9	36531824	326.940632586	197.880509755
9	36563254	327.143450397	75.298759752
9	36571788	327.191397054	493.829828517
9	36590289	327.305725062	10.197829197
9	36603507	327.395554433	7.107493879
9	36625874	327.600239453	416.738614504
9	36628399	327.618945268	57.577848169
9	36629026	327.624644558	485.525415768
9	36630382	327.635584267	574.137142405
9	36654476	327.837746961	234.249678169
9	36679315	327.985398956	171.901535808
9	36682879	327.998344567	50.847777618
9	36693120	328.052115196	72.224698512
9	36709522	328.142116521	82.004110428
9	36759776	328.417538894	136.549145274
9	36762891	328.43794734	206.896491014
9	36779812	328.541840196	124.337020033
9	36811823	328.703013073	72.226577155
9	36894732	329.204809042	78.25849116
9	36923087	329.426333662	549.348316332
9	36924949	329.441686662	81.24688436
9	36955550	329.631180345	638.794040275
9	36968282	329.734608512	353.052685799
9	36976509	329.811111551	139.706748417
9	36977453	329.819669868	244.431101876
9	36998423	329.954272917	186.088116261
9	37016211	330.045716287	35.638052239
9	37047532	330.244312645	11.605560631
9	37095628	330.50225738	314.23075799
9	37104936	330.557494041	162.112044391
9	37162846	330.842285984	173.241829208
9	37251865	331.314284193	181.560141211
9	37295434	331.559397075	306.667456852