version 2
run PastryDHT-9-20211207-13:19:07-4660
attr Lifetime 1000s
attr configname PastryDHT
attr datetime 20211207-13:19:07
attr experiment PastryDHT
attr inifile configs.ini
attr iterationvars $Lifetime=1000s
attr iterationvars2 "$Lifetime=1000s, $repetition=0"
attr measurement $Lifetime=1000s
attr network oversim.underlay.simpleunderlay.SimpleUnderlayNetwork
attr processid 4660
attr repetition 0
attr replication #0
attr resultdir results
attr runnumber 9
attr seedset 9

vector 55  SimpleUnderlayNetwork.globalObserver.globalStatistics  "GlobalNodeList: Number of nodes"  ETV
vector 56  SimpleUnderlayNetwork.globalObserver.globalStatistics  "GlobalDhtTestMap: Number of stored DHT entries"  ETV
vector 57  SimpleUnderlayNetwork.globalObserver.globalStatistics  "LifetimeChurn: Session Time"  ETV
vector 58  SimpleUnderlayNetwork.globalObserver.globalStatistics  "LifetimeChurn: Time between creates"  ETV
vector 59  SimpleUnderlayNetwork.globalObserver.globalStatistics  "LifetimeChurn: Time between deletes"  ETV
55	10578495	200	1021
55	12453417	250	1043
55	13768578	300	1026
55	15625221	350	1025
55	17182594	400	1018
55	18792110	450	1015
55	20534704	500	1022
55	22240824	550	1017
55	24000026	600	1011
55	25580147	650	1006
55	27200944	700	1012
55	28706879	750	1019
55	30532291	800	1028
55	32245073	850	1028
55	33977507	900	1034
55	35470435	950	1025
55	37449139	1000	1038
55	39191259	1050	1048
55	41027209	1100	1052
55	42898289	1150	1063
56	10578496	200	1548
56	10972651	210	1743
56	11413174	220	1902
56	11760410	230	2037
56	12092542	240	2173
56	12453418	250	2352
56	12796071	260	2535
56	13015446	270	2719
56	13249897	280	2894
56	13450637	290	3027
56	13768579	300	3174
56	14247271	310	3331
56	14703115	320	3520
56	14984508	330	3699
56	15310674	340	3869
56	15625222	350	4000
56	15991973	360	4158
56	16282938	370	4308
56	16643581	380	4504
56	16888525	390	4694
56	17182595	400	4851
56	17496863	410	4879
56	17810697	420	4902
56	18075790	430	4924
56	18423496	440	4901
56	18792111	450	4898
56	19161006	460	4880
56	19534843	470	4888
56	19876497	480	4893
56	20166249	490	4896
56	20534705	500	4897
56	20885860	510	4887
56	21338358	520	4887
56	21673551	530	4893
56	21949504	540	4900
56	22240825	550	4887
56	22615765	560	4881
56	22986067	570	4872
56	23336545	580	4871
56	23692831	590	4879
56	24000027	600	4871
56	24321900	610	4871
56	24577773	620	4862
56	24865755	630	4868
56	25240622	640	4864
56	25580148	650	4863
56	25884454	660	4860
56	26264411	670	4871
56	26610269	680	4853
56	26871563	690	4837
56	27200945	700	4847
56	27512092	710	4848
56	27710011	720	4851
56	27967513	730	4852
56	28342524	740	4847
56	28706880	750	4821
56	29072492	760	4846
56	29422747	770	4850
56	29690738	780	4870
56	30122993	790	4865
56	30532292	800	4857
56	30991002	810	4826
56	31305299	820	4834
56	31642042	830	4855
56	31947203	840	4885
56	32245074	850	4883
56	32684393	860	4860
56	33010814	870	4848
56	33349702	880	4842
56	33664827	890	4870
56	33977508	900	4922
56	34276850	910	4902
56	34593853	920	4885
56	34890523	930	4881
56	35182055	940	4861
56	35470436	950	4899
56	35819422	960	4908
56	36247150	970	4906
56	36731430	980	4900
56	37097575	990	4890
56	37449140	1000	4886
56	37795358	1010	4918
56	38124935	1020	4923
56	38417969	1030	4928
56	38784348	1040	4917
56	39191260	1050	4944
56	39514339	1060	4928
56	39935482	1070	4940
56	40302435	1080	4953
56	40682338	1090	4965
56	41027210	1100	4945
56	41336670	1110	4976
56	41594672	1120	4974
56	41998688	1130	4958
56	42478445	1140	4960
56	42898290	1150	4988
56	43239653	1160	4999
56	43634762	1170	4998
56	43899799	1180	4987
56	44298305	1190	4929
57	10588660	200.22123188	595.976850781
57	10590055	200.266486048	432.658005551
57	10642015	202.044023017	631.81030642
57	10658482	202.509253786	2044.869599244
57	10681104	203.601540365	808.37758572
57	10709414	204.408039476	2191.431587055
57	10712702	204.624835938	418.084683971
57	10716104	204.84740435	2074.419760629
57	10719665	205.096673771	2585.498358648
57	10751330	206.122826277	950.283169781
57	10776463	206.573806329	2971.057628472
57	10841386	207.497212556	1057.476240624
57	10856198	207.908986566	1921.915396945
57	10886332	208.287942397	1706.341848107
57	10925108	209.118234178	45.386709703
57	10966289	209.935901011	1949.83602454
57	10998901	210.310347961	2185.283306365
57	11006453	210.506631778	2930.184632931
57	11055844	211.859309319	418.307012545
57	11081508	212.281874854	250.94806467
57	11092536	212.567309599	2635.546722062
57	11116093	213.124514272	1333.950677078
57	11230894	215.759412096	1550.812462215
57	11233958	215.830015361	727.55072791
57	11261169	216.593279684	790.657367819
57	11261843	216.617209058	2690.462182866
57	11333018	217.932865687	1664.394880615
57	11352658	218.435752958	242.323791707
57	11371433	218.780052149	146.024623783
57	11374245	218.860804361	145.283582998
57	11401527	219.674397378	1683.168398711
57	11466678	221.005550053	680.084610187
57	11475067	221.213445822	150.349573021
57	11475632	221.237374041	1000.138194063
57	11510574	221.957184574	127.264571011
57	11523900	222.48797704	118.051568048
57	11546766	222.903824144	1776.363816718
57	11571985	223.493726454	806.491726192
57	11665539	226.367508974	1233.561691362
57	11669856	226.489086759	5.857084586
57	11673885	226.597310392	463.195153664
57	11692905	227.232145565	2521.74750577
57	11717611	228.470468478	2032.611548745
57	11811988	231.510336546	2883.697656293
57	11828857	231.951068402	254.884217574
57	11835827	232.257302248	33.389828335
57	11857909	233.250336619	1590.107503412
57	11884352	233.824309594	190.434188711
57	11896018	234.371271856	127.502778464
57	11897226	234.503044828	1050.549401654
57	11989121	237.310684933	352.782922145
57	11991343	237.374505637	177.460649643
57	12017231	238.048154125	2024.380919288
57	12031061	238.423346097	679.809766456
57	12041646	238.959631414	49.009535464
57	12058530	239.274024602	464.288925605
57	12064507	239.399321456	987.832704327
57	12065747	239.454403009	1370.238012991
57	12097104	240.362065095	2003.926991543
57	12136173	240.98754306	61.006678927
57	12183882	241.913498091	350.004714596
57	12225734	242.835466393	1114.33235086
57	12241005	243.052577096	45.67191452
57	12266872	244.000652043	426.378042235
57	12279736	244.282664401	1911.128526696
57	12309239	245.517390299	850.408945068
57	12340501	246.274764614	2848.09239943
57	12356539	246.961754218	21.20871561
57	12359505	247.255069148	221.641489482
57	12380031	247.74166486	382.341139704
57	12399495	248.571735194	137.763830626
57	12450524	249.847816398	2256.91763695
57	12473865	250.609188614	1160.761251373
57	12532989	251.704218602	1843.653491987
57	12547065	252.197823261	70.943385861
57	12551579	252.290486637	837.101142377
57	12589898	253.500883053	3333.67521536
57	12600374	253.636572231	961.505083697
57	12601773	253.669814771	943.517415175
57	12642393	254.7906344	1483.572677669
57	12672122	255.643336254	241.27986768
57	12758144	258.175998318	753.726120505
57	12796280	260.012081479	1623.690577981
57	12816411	261.219251387	526.617308651
57	12825458	262.002007513	282.891475281
57	12878583	264.037582796	17.468166653
57	12927929	266.208239441	10.222421686
57	12950810	267.649046102	149.508157427
57	13030457	270.669055424	961.478277753
57	13043937	271.627853074	319.149977781
57	13048271	271.987874423	464.435742808
57	13069991	273.108660565	1712.819028438
57	13087738	273.692222224	95.598895341
57	13161294	276.66752929	161.351533686
57	13190188	277.747533876	499.289645199
57	13194275	278.073430214	403.049016726
57	13227134	279.473009496	243.677322892
57	13295684	281.650262171	224.441476705
57	13427055	288.592458055	2823.862920579
57	13441471	289.409907757	599.564863209
57	13441561	289.414003419	3913.91634681
57	13446943	289.76375068	379.522834688
57	13450172	289.97688538	1068.524774442
57	13483299	291.504727473	73.561853295
57	13484179	291.549370038	1498.362036984
57	13484699	291.581379487	389.552274366
57	13493035	291.951372153	1030.449983274
57	13508371	292.354801669	417.331991652
57	13610119	294.841495857	42.724249358
57	13621233	295.124857364	564.34871609
57	13635661	295.47650868	213.894543075
57	13643653	295.791925142	1283.068829543
57	13751549	299.094675849	2557.65880007
57	13789326	301.150550613	140.61016436
57	13801535	301.457613046	441.787547523
57	13806329	301.63407755	301.987993957
57	13822000	302.283825359	2467.716856827
57	13831567	302.71336907	1680.621280356
57	13837065	302.804102613	328.59896811
57	13875529	303.496852109	3414.330766923
57	13877295	303.589467813	506.569715863
57	13883155	303.735926601	10.039895226
57	13951335	305.191623122	524.879324418
57	13952554	305.232033139	3943.026194928
57	14012696	306.263092797	2059.054109361
57	14014936	306.32462396	2127.733098088
57	14042864	306.797844479	2244.388499797
57	14093430	307.39911213	172.73050384
57	14104056	307.54560264	1266.099894527
57	14106263	307.588952555	235.345119074
57	14155298	308.327511024	1358.952360828
57	14241630	309.860623487	1668.060718462
57	14262629	310.431414622	20.337294643
57	14298188	311.318130618	44.52683166
57	14307724	311.768235901	485.401639265
57	14317063	311.955164519	797.218222532
57	14345859	312.773824874	256.123105909
57	14380507	313.778581476	30.80094823
57	14381863	313.812764087	763.358072617
57	14427053	314.764052011	994.476520385
57	14437510	315.015368007	277.291143509
57	14454132	315.179683293	1342.180647868
57	14489622	315.751557322	536.920864516
57	14494840	315.86204723	359.695153346
57	14505164	316.123904959	220.721279686
57	14526082	316.633532573	1392.056971743
57	14749889	320.749968308	1048.913606806
57	14761330	321.153559926	3348.009744837
57	14810015	322.797593337	239.580144565
57	14869658	324.870605243	1212.340566077
57	14902731	326.469653695	183.19977158
57	14903977	326.5368572	427.812291722
57	14962503	329.361860992	87.638581315
57	14963772	329.412830479	533.136964016
57	14964817	329.452023585	83.635437768
57	15002506	330.708097942	1016.742143481
57	15029023	331.161596635	1416.314827857
57	15066824	332.435355584	98.634891072
57	15066919	332.442337288	3251.963174849
57	15132451	334.912969251	560.224742148
57	15166076	336.229691083	129.252280714
57	15170073	336.309342763	208.016893335
57	15277082	339.063738932	1860.969322067
57	15331417	340.877895221	2326.009098961
57	15353916	341.569431358	1100.548841569
57	15380784	342.513336826	608.066489291
57	15446374	344.908832562	1690.139319839
57	15450537	345.135224503	1346.52295184
57	15452171	345.204689462	1574.701005225
57	15453566	345.287705048	322.295830954
57	15488141	346.615210905	13.411544927
57	15529694	347.468837936	2568.055511941
57	15537262	347.88543377	1870.012295507
57	15577624	348.74388568	26.38503405
57	15651825	350.902382222	972.219774645
57	15678598	351.88979233	29.100346697
57	15685708	352.275731127	694.373266954
57	15719272	353.405236776	1029.309272744
57	15739341	353.956417488	105.589383428
57	15811446	355.517741613	883.08418267
57	15812502	355.568638408	1290.326507469
57	15873531	356.90393165	1636.502409434
57	15976159	359.370986784	1964.890983576
57	15986970	359.740119018	101.783254359
57	15987183	359.754100993	279.501414992
57	15992875	360.065473245	633.522633804
57	16073297	363.409010641	6.114299775
57	16098838	364.239408941	1278.519145812
57	16121837	365.169538602	2.167892027
57	16125378	365.292103687	206.188081595
57	16135314	365.590392846	1247.955793745
57	16135828	365.605993604	733.539971189
57	16230112	368.616654862	403.529846812
57	16233495	368.810831375	1791.221477161
57	16244652	368.955382208	235.586267072
57	16268257	369.599338088	846.026254952
57	16289709	370.365635994	341.58288595
57	16329163	371.316124752	1059.330294092
57	16329238	371.320711283	206.713999103
57	16350677	371.662685148	1843.286889537
57	16364296	371.912484843	162.122693713
57	16411518	373.177475643	2730.304365181
57	16432679	373.491385814	9.60101841
57	16636695	379.772913183	231.613087588
57	16647927	380.194349287	1489.98439419
57	16662661	380.742371867	1627.854687927
57	16677831	381.343876376	750.952963191
57	16717857	382.580024778	416.111774843
57	16718954	382.651700706	273.955453407
57	16765192	384.718108665	131.72547723
57	16890851	390.107809046	2837.935729624
57	16892410	390.16095662	1296.136501381
57	16932280	392.452841391	1468.018007887
57	16949155	392.866586664	454.726776821
57	17021179	394.931729714	146.18720419
57	17051742	395.972835762	900.792800406
57	17110458	397.790484024	1104.979136345
57	17112938	397.854064706	724.762585335
57	17170335	399.645888519	1551.587740961
57	17219052	401.25516672	355.703329611
57	17233835	402.090560382	1097.428163537
57	17249960	402.750886102	281.706631711
57	17298551	403.972274872	1299.630300554
57	17298981	403.986228302	132.022314602
57	17354119	405.835843316	2648.492385809
57	17406323	407.408708687	7.890122617
57	17412114	407.606023588	1399.814171959
57	17426239	407.934176742	2568.941741415
57	17443970	408.564258936	1047.613107857
57	17576829	413.453752056	792.10049267
57	17589027	414.150589415	161.291867394
57	17623381	415.587597501	845.084056514
57	17631462	415.815168557	296.481410579
57	17653092	416.505417879	222.554288519
57	17653585	416.528177189	2211.102645119
57	17665917	417.010171836	426.404819191
57	17670677	417.285942109	1068.563643688
57	17900255	423.238099092	1690.805171686
57	17913990	423.838794397	1021.481046363
57	17919140	424.049967948	2076.767006518
57	17976304	426.106884177	219.497105306
57	18000407	426.961449848	2629.789937224
57	18040094	428.845833803	982.333340779
57	18040538	428.85678679	66.308721486
57	18063745	429.439976972	245.215693382
57	18076093	430.0152705	75.24052537
57	18119442	431.511939094	1971.346440134
57	18126770	431.908743547	944.431127051
57	18127895	431.970378392	3596.38462256
57	18207153	433.834890524	4978.777123873
57	18232017	434.787405954	1433.486232503
57	18262456	435.727005229	920.332844914
57	18322859	437.219728458	1047.675828082
57	18329879	437.404654276	1449.643559207
57	18355105	438.096917071	1262.125150346
57	18381888	438.739214431	1730.751979279
57	18462523	440.694085615	416.53511183
57	18489726	441.478540329	1379.729633611
57	18494044	441.725222168	175.144676729
57	18498435	441.960780497	435.389177703
57	18509286	442.42722569	985.861347696
57	18538710	442.926173551	531.730148712
57	18589251	444.253948225	1571.534416527
57	18594749	444.454837094	396.493942562
57	18631201	445.431368167	377.687512605
57	18684886	446.592205522	248.769006607
57	18699350	446.98244208	222.54651426
57	18705255	447.140980281	400.448370171
57	18833649	451.494803588	598.22697532
57	18941974	455.021086739	1186.095211035
57	18958085	455.33839543	1665.902278555
57	18974064	455.703609069	1075.229981279
57	18979938	455.972423746	1793.279967017
57	18984927	456.136136805	88.990991
57	19001123	456.395002347	1173.217734401
57	19005773	456.506891322	1367.683025347
57	19019139	456.758894834	159.782343305
57	19025375	456.871895548	1292.253796597
57	19043622	457.4034288	804.227436128
57	19138051	459.427944383	124.447179412
57	19174202	460.440086474	144.942242913
57	19218217	461.734182237	2297.644997349
57	19278020	463.391598406	106.569376409
57	19294027	463.856011916	166.81735366
57	19335832	465.129125072	413.632685655
57	19381168	466.66004537	25.419162174
57	19381819	466.680393916	47.923335024
57	19387586	466.919613527	968.85359001
57	19427689	468.005428852	1960.434057657
57	19429274	468.058354137	1138.579137264
57	19549914	470.30487675	3.710902065
57	19643134	472.445746332	2615.205261799
57	19643261	472.453301529	1176.196398527
57	19647049	472.621919792	775.84301257
57	19652462	472.858181061	1285.52655535
57	19657599	473.073910484	923.416306718
57	19771191	476.264905245	1022.303811485
57	19788298	476.662814774	1295.378032522
57	19845132	478.672165017	1123.363677123
57	19895871	480.589510759	1035.470725891
57	19934500	481.953353837	809.234581044
57	19951734	482.326812917	35.090700897
57	19993292	483.791557163	2295.600003551
57	20042312	485.302661036	535.026666345
57	20076141	486.586438933	286.083613535
57	20077471	486.696679133	12.57804889
57	20094025	487.241782231	1237.474993785
57	20150230	489.356884304	1926.923125362
57	20177978	490.633260761	749.414570598
57	20198393	491.692895977	335.228725237
57	20203964	492.069570095	877.80979775
57	20224980	492.945279224	545.246234107
57	20226872	492.975892736	1058.744686384
57	20254159	493.635916474	1038.347604963
57	20288187	494.078337231	775.423439456
57	20295936	494.208847378	685.151903685
57	20312555	494.816245452	1047.526905415
57	20322602	495.185063538	4504.737292132
57	20435828	497.738637874	1120.546774646
57	20448442	498.008719556	41.270971229
57	20472044	498.650261147	337.885703685
57	20491588	499.213244177	969.729568811
57	20491897	499.217114687	286.800826831
57	20545219	500.458210676	3521.588126118
57	20549184	500.64695944	39.64958164
57	20632042	502.705344778	1146.135858938
57	20648133	503.236486702	419.977119653
57	20649423	503.28813002	744.895134584
57	20668238	504.115603926	2686.515766961
57	20683012	504.742347675	537.94671141
57	20684267	504.806404444	2158.147616058
57	20689851	505.211134702	114.173170586
57	20745487	506.666566769	1220.099943748
57	20833248	508.647169317	2006.635830501
57	20854772	509.198479503	1072.869631964
57	20856050	509.213197818	916.740771011
57	20865196	509.480229211	328.131191322
57	20866215	509.518036161	388.755094058
57	20895670	510.40999784	334.630323625
57	20912890	510.714841903	2504.339660145
57	21018188	512.650732545	252.851637575
57	21034672	512.910700116	438.915514574
57	21042039	513.089216941	80.804562807
57	21056119	513.404845648	426.206471757
57	21068914	513.834984941	3039.319766575
57	21095636	514.335299137	1637.247976184
57	21133318	515.453729292	1.012440422
57	21195778	516.768012901	2125.33352516
57	21287367	518.61014013	3322.575372352
57	21325991	519.77485732	1630.876256005
57	21488703	523.785617592	1946.838432476
57	21500764	524.289028526	1274.725748681
57	21501086	524.317576396	744.17236185
57	21518460	524.965219072	221.217656854
57	21533875	525.41981511	2024.568535064
57	21568188	526.700772067	4645.973991788
57	21610520	527.745532383	1149.965531684
57	21631811	528.788476464	1028.808013059
57	21641582	528.991357371	2734.092966998
57	21732236	532.24012605	115.105690483
57	21751750	532.897769897	917.349775143
57	21792302	534.518817804	242.667000487
57	21812668	535.28057727	132.773797034
57	21819943	535.545280488	396.768494132
57	21920693	538.972318413	2287.766475612
57	21944577	539.689820495	20.847618072
57	21982439	541.060320895	837.998979202
57	22095614	545.448174531	2395.770022713
57	22111112	545.926280906	1449.20820593
57	22123558	546.494140492	663.339303807
57	22137899	547.172705648	1848.158594898
57	22200028	548.733506336	748.667288432
57	22215346	549.171162608	8.268280601
57	22243545	550.121395862	1512.659497382
57	22247837	550.345259172	950.433994452
57	22254980	550.502446046	1690.740594783
57	22255883	550.545495836	3191.142438787
57	22274880	550.883844152	2693.039130729
57	22292612	551.249607258	29.13056181
57	22304764	551.839861016	698.847153813
57	22401976	554.259471293	2198.524607454
57	22450573	555.452460663	1909.747092851
57	22507217	556.925916541	417.451725612
57	22522031	557.617929038	1062.408910843
57	22526381	557.831248241	1.988637023
57	22573963	559.426743617	2702.838030467
57	22640473	560.593732695	1069.501130249
57	22644864	560.733655554	1014.834956253
57	22649393	560.946176364	50.072777406
57	22649441	560.947223677	2518.559329283
57	22670347	561.583689298	1957.258948001
57	22676560	561.715114064	478.165626543
57	22756715	563.348931156	3112.277923285
57	22837294	565.54278964	364.879925286
57	22848709	565.972941707	1476.676558774
57	22851151	566.100933624	670.637979325
57	22869074	566.886344195	673.257694296
57	22889024	567.625681283	1781.043193735
57	22964793	569.58938038	213.174978913
57	22974213	569.77077803	332.439837021
57	23031905	571.551913831	1625.831039248
57	23084937	573.31028564	557.198254746
57	23110322	573.688752562	94.853390518
57	23133312	574.459797155	3986.548100928
57	23251642	577.779885789	1316.677566685
57	23307595	579.342327965	160.109828659
57	23335635	579.960452744	1918.126506618
57	23337930	580.056699037	1424.96498614
57	23359238	580.798800984	239.237508952
57	23445132	583.139770206	1067.523488083
57	23474043	583.934821045	992.63541481
57	23478010	584.04566186	1.419551765
57	23513670	585.213410868	1263.121817386
57	23555389	586.592763119	2590.164955533
57	23572397	587.304374745	3697.849950363
57	23633569	588.590302109	350.284464471
57	23642812	588.772011152	2686.466831857
57	23710536	590.576544147	164.869795219
57	23716368	590.743655133	1336.02707745
57	23833329	594.334387891	1198.763380711
57	23853505	595.341563605	624.937990169
57	23856320	595.466570045	340.755192736
57	23875302	596.078998592	450.703698867
57	23895820	596.976985179	342.459055089
57	23900655	597.177919952	343.428001036
57	23912479	597.426649152	2803.951103267
57	24004970	600.232146972	416.799765037
57	24024376	600.883387417	516.356869984
57	24054270	602.038266537	53.753869406
57	24130613	603.992112807	87.804040668
57	24149177	604.586633129	408.992739458
57	24161904	605.120979529	207.33370701
57	24180383	605.44824009	1943.800417764
57	24335018	610.830724167	755.968722983
57	24370395	613.172343694	740.168404545
57	24419257	615.098137369	473.693261858
57	24444951	615.999475522	819.728219414
57	24470976	616.773637889	626.398046247
57	24499646	617.920476833	976.992764777
57	24586184	620.370651501	117.235451431
57	24643747	622.91934011	947.143152307
57	24664422	624.011316476	230.495895064
57	24680324	624.81055051	402.876409348
57	24685088	625.135387248	2028.566741107
57	24692357	625.374260459	1616.420469833
57	24705560	625.956836824	498.209316356
57	24711549	626.260010316	1380.447075477
57	24714549	626.406608263	2739.751311287
57	24752969	627.579811069	152.161518515
57	24839449	629.30141193	826.90343836
57	24842409	629.407947917	475.901507708
57	24857667	629.776229065	930.612372313
57	24873207	630.331878664	38.214210121
57	24892469	630.79952886	453.429690274
57	24909592	631.135564866	2591.565949932
57	25001471	634.099155428	200.88871447
57	25018940	634.485587969	2774.346789539
57	25049380	635.61939551	4320.980721317
57	25096550	636.130827596	24.06935489
57	25200463	638.801394383	1287.499514987
57	25225743	639.32863253	425.895401458
57	25233281	639.635547785	1212.848810473
57	25233537	639.647883597	319.915388054
57	25278388	641.045181905	700.406690567
57	25280618	641.118056515	79.71526607
57	25285302	641.30018956	434.231047164
57	25337629	643.245166515	83.833778754
57	25345173	643.589276301	417.441380673
57	25491822	647.724400965	498.631210803
57	25582111	650.145846496	75.467707309
57	25594236	650.626100996	1389.208744714
57	25621388	651.137649748	265.558091667
57	25633952	651.608488343	3399.678885871
57	25647106	651.969082748	1223.248478835
57	25658038	652.339016425	152.71140457
57	25739009	654.898581963	246.294489691
57	25758643	655.576290236	513.13446009
57	25796821	656.748332419	749.726389684
57	25817733	657.709946965	2997.804571481
57	25822723	657.916299354	520.963124715
57	25833866	658.403071425	402.458700923
57	25864085	659.176363097	1914.571705883
57	26021362	663.687405694	469.519216709
57	26039874	664.013323991	1824.596892289
57	26049695	664.498543175	554.198357859
57	26055981	664.748601804	1832.528227507
57	26072641	665.289662233	430.85535283
57	26142755	667.051221673	2151.703085534
57	26154065	667.262354927	1985.860856539
57	26168739	667.62339774	955.886805448
57	26175661	667.803952224	1507.632778128
57	26236548	669.390275408	908.325881884
57	26284673	670.726776504	284.348343954
57	26293168	671.116306675	110.482632095
57	26366397	673.449732692	390.373556345
57	26380311	673.889793038	262.563307443
57	26436744	675.598215532	866.02779727
57	26483721	676.523880366	885.434659208
57	26565804	678.340575222	120.230553752
57	26620092	680.156757992	406.156459982
57	26648038	680.988128722	245.986389183
57	26674544	682.164306913	757.076750524
57	26690159	682.738373259	377.501657258
57	26724401	683.918790537	673.238048485
57	26833546	687.88476532	2126.444827902
57	26847662	688.569413948	1775.46082727
57	26865506	689.71262877	300.674674972
57	26880732	690.571216199	358.7885219
57	26927771	692.450297597	1437.566145912
57	26944553	693.12862534	3787.632128151
57	26948892	693.229814163	369.897353971
57	27069888	696.15873226	462.480284071
57	27076759	696.417175436	471.243937793
57	27087669	696.913902988	190.366501969
57	27124103	698.046969282	1345.947990347
57	27160545	698.794602518	419.103144394
57	27197154	699.891202161	1795.288674235
57	27231146	700.847557727	1091.482758224
57	27256025	701.633901622	1370.473833083
57	27278648	702.653580595	416.542430551
57	27289228	702.892486272	987.906501625
57	27346514	705.228674155	583.569652826
57	27348331	705.33152461	2449.504024326
57	27424906	707.56210549	1696.082912356
57	27481466	709.21423032	1008.646526215
57	27488059	709.440878583	842.327585362
57	27579378	713.788782746	174.889575373
57	27592362	714.766409455	55.625206196
57	27647118	717.45870494	1337.599295006
57	27700471	719.581241779	1299.161394787
57	27714473	720.26687866	803.583772682
57	27726716	720.867027827	272.297931373
57	27791203	723.615740952	155.142325496
57	27791382	723.626707736	928.976516933
57	27815302	724.588132066	1630.251908607
57	27859856	726.109760844	636.370407904
57	27862284	726.275215127	263.338155969
57	27869622	726.673261744	330.521239979
57	27896195	727.448778629	804.891088662
57	27898457	727.567035962	848.552571462
57	27954418	729.296891706	196.577611002
57	27964442	729.879703767	1380.320544497
57	27972501	730.208758785	223.558173534
57	28004162	730.857998459	255.313532114
57	28065160	732.319094445	1885.51318548
57	28077235	732.691700788	329.724532637
57	28141810	734.279018201	59.704772967
57	28147323	734.459343183	1983.258655312
57	28159245	734.804415731	3202.734629786
57	28161486	734.861066572	154.773773647
57	28196493	735.842011686	859.177431418
57	28257244	737.708067134	2058.2462831
57	28305573	739.112385667	864.441601379
57	28310538	739.205668435	622.226358493
57	28346147	740.102771347	704.502554825
57	28446820	742.618683987	2251.632695039
57	28496587	744.198332235	855.382200957
57	28527824	745.110386689	355.205276227
57	28542294	745.750282429	474.343959017
57	28544387	745.882963607	418.981133163
57	28565602	746.501130168	22.532308961
57	28577585	746.781481817	56.440796334
57	28613493	747.365239385	2573.280231789
57	28620864	747.590658218	2402.142588761
57	28653309	748.534329246	950.488112012
57	28695836	749.537830379	1054.709868081
57	28699471	749.720642316	754.85649873
57	28723157	750.484180064	230.892081019
57	28758969	751.470939179	538.516212631
57	28761416	751.709908687	2166.099631202
57	28794026	753.132421584	961.734569841
57	28821315	753.926373343	1085.802375857
57	28864223	754.74230571	2582.612906243
57	28890444	755.572989332	1636.18546693
57	28895756	755.838097921	2380.422146736
57	28918231	756.523830666	481.049987751
57	28940954	757.483889582	2011.910191065
57	29002148	758.800831472	320.631190519
57	29061159	759.834990805	1689.928856034
57	29069875	759.953820626	1212.303823355
57	29088482	760.442697386	4935.783286535
57	29115704	760.857513649	81.454963631
57	29252945	764.497104648	164.441726829
57	29256488	764.570895074	1073.238302439
57	29302231	766.256243644	196.598451939
57	29338803	767.088157744	142.251869866
57	29346508	767.427409327	1102.450699101
57	29456671	771.392548537	1166.723422276
57	29461248	771.522429064	465.869739483
57	29466937	771.739363312	776.609693402
57	29564018	775.267322328	2909.874190074
57	29564602	775.295247727	416.658167744
57	29577169	775.739796347	1943.678196296
57	29601149	777.037474215	136.834344609
57	29604747	777.098523466	1594.778376577
57	29615246	777.384200304	267.223239836
57	29622705	777.863568825	2008.280780389
57	29657645	779.478998124	1518.394873209
57	29690588	779.996069138	2056.837157457
57	29724159	780.592078519	385.259689355
57	29782058	781.776526642	999.019084615
57	29807113	782.298911427	283.154198502
57	29832852	783.045909606	2282.455890031
57	29876649	784.103536374	1216.376798016
57	29883128	784.186494866	388.622790899
57	29895479	784.503327343	4005.557378248
57	29929657	785.843369957	1202.327219688
57	29970123	787.216160682	337.477333751
57	29990223	787.752978819	695.012282912
57	29994513	787.899186944	647.728798213
57	30007732	788.22081178	1033.001394962
57	30125756	790.131976086	98.456166967
57	30189544	791.38794123	422.329621314
57	30200627	791.630978858	875.036031786
57	30204264	791.7208947	3.269214136
57	30221206	792.099939523	4120.47543807
57	30241708	792.438823877	190.613101484
57	30256945	792.751884792	674.10980512
57	30266544	792.961586125	5.470218782
57	30273634	793.232881741	469.33055876
57	30282459	793.363039725	30.329462293
57	30352378	794.8842872	1257.749922212
57	30406506	796.239582482	583.826854783
57	30509002	799.191253356	64.386696784
57	30548418	800.465388776	8.855978145
57	30561072	800.854089029	2133.647634547
57	30570131	801.393961964	1375.061310285
57	30571801	801.496440759	706.793635991
57	30576421	801.642393804	314.613232491
57	30598929	802.312121054	30.848695966
57	30633241	803.349983434	836.121075404
57	30659940	803.809433196	1354.120755763
57	30664283	803.916857007	1876.946218774
57	30673574	804.145128569	2009.405297704
57	30704982	804.759287916	211.940813177
57	30740652	805.441438413	15.668364348
57	30806331	806.427406155	1346.724958872
57	30879732	807.696234773	1892.045511159
57	30952303	809.224814521	1784.648176701
57	31037443	811.071805986	673.73052534
57	31037509	811.072925218	1550.244755368
57	31066118	812.002238342	110.830050897
57	31075002	812.278531994	1261.964168614
57	31118488	813.304694823	1461.525027287
57	31209681	816.395890283	1361.182244003
57	31260943	818.123070769	2293.463668926
57	31274912	818.731430913	775.345197232
57	31275060	818.738807432	722.629304035
57	31275923	818.772145689	39.604327152
57	31280023	818.957298207	801.985355617
57	31317870	820.4787284	237.69059593
57	31373624	821.991232311	1498.35404354
57	31395193	822.699130652	1158.489617975
57	31396432	822.733286455	2258.555161196
57	31410869	823.129654311	1704.525570484
57	31557767	827.537063869	509.057831345
57	31596859	828.598687746	492.097588736
57	31603146	828.691946461	173.193328733
57	31629875	829.594361116	39.709709094