version 2
run PastryDHT-4-20211207-12:44:48-4660
attr Lifetime 500s
attr configname PastryDHT
attr datetime 20211207-12:44:48
attr experiment PastryDHT
attr inifile configs.ini
attr iterationvars $Lifetime=500s
attr iterationvars2 "$Lifetime=500s, $repetition=0"
attr measurement $Lifetime=500s
attr network oversim.underlay.simpleunderlay.SimpleUnderlayNetwork
attr processid 4660
attr repetition 0
attr replication #0
attr resultdir results
attr runnumber 4
attr seedset 4

vector 25  SimpleUnderlayNetwork.globalObserver.globalStatistics  "GlobalNodeList: Number of nodes"  ETV
vector 26  SimpleUnderlayNetwork.globalObserver.globalStatistics  "GlobalDhtTestMap: Number of stored DHT entries"  ETV
vector 27  SimpleUnderlayNetwork.globalObserver.globalStatistics  "LifetimeChurn: Time between deletes"  ETV
vector 28  SimpleUnderlayNetwork.globalObserver.globalStatistics  "LifetimeChurn: Session Time"  ETV
vector 29  SimpleUnderlayNetwork.globalObserver.globalStatistics  "LifetimeChurn: Time between creates"  ETV
25	12802736	200	1008
25	15618865	250	1018
25	18775159	300	1023
25	21799663	350	1006
25	24772208	400	1026
25	27786144	450	1037
25	30746972	500	1035
25	33534046	550	1028
25	36805623	600	1032
25	40069025	650	1033
25	43549847	700	1043
25	46834173	750	1043
25	49989008	800	1035
25	53269598	850	1041
25	56404368	900	1031
25	59789036	950	1039
25	62939823	1000	1033
25	65425616	1050	1000
25	68539020	1100	996
25	71885886	1150	1000
26	12802737	200	1474
26	13336438	210	1641
26	13798136	220	1793
26	14315191	230	1910
26	15031010	240	2042
26	15618866	250	2205
26	16277241	260	2386
26	16961024	270	2547
26	17525193	280	2696
26	18156800	290	2842
26	18775160	300	2976
26	19327671	310	3145
26	19941144	320	3303
26	20608580	330	3470
26	21228540	340	3621
26	21799664	350	3749
26	22326035	360	3911
26	22910307	370	4070
26	23569061	380	4246
26	24110580	390	4403
26	24772209	400	4542
26	25385460	410	4600
26	26105233	420	4623
26	26669836	430	4631
26	27161860	440	4636
26	27786145	450	4609
26	28454124	460	4619
26	29028166	470	4652
26	29542033	480	4665
26	30080124	490	4675
26	30746973	500	4682
26	31379342	510	4663
26	31961520	520	4663
26	32505888	530	4708
26	32974877	540	4728
26	33534047	550	4719
26	34102961	560	4718
26	34884541	570	4722
26	35552756	580	4698
26	36186484	590	4714
26	36805624	600	4727
26	37426824	610	4717
26	38075757	620	4736
26	38696116	630	4754
26	39428527	640	4740
26	40069026	650	4776
26	40721828	660	4748
26	41414178	670	4742
26	42172576	680	4742
26	42903977	690	4752
26	43549848	700	4768
26	44183646	710	4766
26	44882659	720	4776
26	45500417	730	4768
26	46155226	740	4767
26	46834174	750	4789
26	47523344	760	4773
26	48151729	770	4764
26	48837422	780	4755
26	49387032	790	4766
26	49989009	800	4744
26	50778142	810	4771
26	51482942	820	4778
26	51982835	830	4750
26	52597065	840	4746
26	53269599	850	4752
26	53887494	860	4744
26	54423431	870	4747
26	55122954	880	4779
26	55765064	890	4763
26	56404369	900	4760
26	57050932	910	4756
26	57656744	920	4734
26	58336913	930	4721
26	59031479	940	4753
26	59789037	950	4741
26	60485003	960	4748
26	61074188	970	4743
26	61678954	980	4726
26	62351386	990	4731
26	62939824	1000	4754
26	63374920	1010	4756
26	63938975	1020	4739
26	64326230	1030	4747
26	64854820	1040	4724
26	65425617	1050	4701
26	66193210	1060	4729
26	66761548	1070	4702
26	67328302	1080	4726
26	67900274	1090	4696
26	68539021	1100	4685
26	69191205	1110	4662
26	69876044	1120	4667
26	70597993	1130	4685
26	71240139	1140	4686
26	71885887	1150	4675
26	72425054	1160	4658
26	73021283	1170	4641
26	73695670	1180	4645
26	74255199	1190	4608
27	12804684	200.029954853	0.041775571
27	12813595	200.211632952	0.181678099
27	12876297	201.072543426	0.860910474
27	12914106	201.438280152	0.365736726
27	12931722	201.731363724	0.293083572
27	12934113	201.810624029	0.079260305
27	12944247	202.132854121	0.322230092
27	13017799	203.547725909	1.414871788
27	13018159	203.559263237	0.011537328
27	13024467	203.774962219	0.215698982
27	13024720	203.781773411	0.006811192
27	13095758	205.203943642	1.422170231
27	13119208	205.741055078	0.537111436
27	13149679	206.345855446	0.604800368
27	13174941	206.778323067	0.432467621
27	13184459	206.99045111	0.212128043
27	13187965	207.101088637	0.110637527
27	13228681	207.901586828	0.800498191
27	13244549	208.258226919	0.356640091
27	13255696	208.500976776	0.242749857
27	13256722	208.522026352	0.021049576
27	13291397	209.234728163	0.712701811
27	13327295	209.712525473	0.47779731
27	13341967	210.14160785	0.429082377
27	13344973	210.202356426	0.060748576
27	13352408	210.347059161	0.144702735
27	13389781	211.047477846	0.700418685
27	13393716	211.170582933	0.123105087
27	13403510	211.331326101	0.160743168
27	13417339	211.71356416	0.382238059
27	13432052	212.037818835	0.324254675
27	13450874	212.481190818	0.443371983
27	13532321	213.751258056	1.270067238
27	13560575	214.422165154	0.670907098
27	13567684	214.590580144	0.16841499
27	13581018	214.834307108	0.243726964
27	13625512	216.206522233	1.372215125
27	13646861	216.579130023	0.37260779
27	13700845	218.111924762	1.532794739
27	13724960	218.531681969	0.419757207
27	13781832	219.789834831	1.258152862
27	13804167	220.127393132	0.337558301
27	13842370	221.291663814	1.164270682
27	13859226	221.53888566	0.247221846
27	13860541	221.559780388	0.020894728
27	13868798	221.69689745	0.137117062
27	13874938	221.870786872	0.173889422
27	13894396	222.393418033	0.522631161
27	13907409	222.7698102	0.376392167
27	13908778	222.808751649	0.038941449
27	13911135	222.896025562	0.087273913
27	13911768	222.912081689	0.016056127
27	13941577	223.448191104	0.536109415
27	13947086	223.676608106	0.228417002
27	13947507	223.700149234	0.023541128
27	13971831	224.493440702	0.793291468
27	13981580	224.861969032	0.36852833
27	14005854	225.19843609	0.336467058
27	14012884	225.350872112	0.152436022
27	14164308	227.680189744	2.329317632
27	14191983	228.115092635	0.434902891
27	14199319	228.312617792	0.197525157
27	14244054	228.874739306	0.562121514
27	14248756	228.914212493	0.039473187
27	14301891	229.662635027	0.748422534
27	14310055	229.899002081	0.236367054
27	14310964	229.916162833	0.017160752
27	14319885	230.132662255	0.216499422
27	14351801	230.7683569	0.635694645
27	14410510	231.684682184	0.916325284
27	14422815	231.940279437	0.255597253
27	14444659	232.415408413	0.475128976
27	14494765	233.126001921	0.710593508
27	14656079	235.061038418	1.935036497
27	14679440	235.363433308	0.30239489
27	14742167	236.159635804	0.796202496
27	14753322	236.288056416	0.128420612
27	14757017	236.306153354	0.018096938
27	14808328	236.729160114	0.42300676
27	14812200	236.773447418	0.044287304
27	14864625	237.381681883	0.608234465
27	14872175	237.621172022	0.239490139
27	14875517	237.664970588	0.043798566
27	14910918	238.235815589	0.570845001
27	14914267	238.270457646	0.034642057
27	14997285	239.232915577	0.962457931
27	14999884	239.360866715	0.127951138
27	15057080	240.385851729	1.024985014
27	15060727	240.46696808	0.081116351
27	15131357	241.883251842	1.416283762
27	15163139	242.558838638	0.675586796
27	15200051	243.355489113	0.796650475
27	15209644	243.571938384	0.216449271
27	15225985	243.953608763	0.381670379
27	15226771	243.969201546	0.015592783
27	15269809	244.644379322	0.675177776
27	15286898	244.882091745	0.237712423
27	15317813	245.631081438	0.748989693
27	15318297	245.646507731	0.015426293
27	15349589	246.271683337	0.625175606
27	15353084	246.386662792	0.114979455
27	15395325	246.921802661	0.535139869
27	15406940	247.135625297	0.213822636
27	15445366	247.836573389	0.700948092
27	15454211	247.958410821	0.121837432
27	15517065	248.679512148	0.721101327
27	15529524	248.874424304	0.194912156
27	15538460	248.995528193	0.121103889
27	15569453	249.397213335	0.401685142
27	15630250	250.11811158	0.720898245
27	15662876	250.46638048	0.3482689
27	15717447	251.148245943	0.681865463
27	15768269	251.654755009	0.506509066
27	15793868	252.133588331	0.478833322
27	15865039	253.053088468	0.919500137
27	15954836	254.661728866	1.608640398
27	15972314	254.879422369	0.217693503
27	16043123	256.335790099	1.45636773
27	16052541	256.487845271	0.152055172
27	16092735	257.264403872	0.776558601
27	16095419	257.298804592	0.03440072
27	16106946	257.434743987	0.135939395
27	16107380	257.441726424	0.006982437
27	16112851	257.544542279	0.102815855
27	16193209	258.718442538	1.173900259
27	16197154	258.82237908	0.103936542
27	16265830	259.750104509	0.927725429
27	16290036	260.177451404	0.427346895
27	16352134	261.269337805	1.091886401
27	16384229	261.555930951	0.286593146
27	16510113	263.558408155	2.002477204
27	16577726	264.568206593	1.009798438
27	16629482	265.366982898	0.798776305
27	16673509	265.869551115	0.502568217
27	16720130	266.570628347	0.701077232
27	16836772	267.973975653	1.403347306
27	16857399	268.338607518	0.364631865
27	16859021	268.365853535	0.027246017
27	16878889	268.725345692	0.359492157
27	16942245	269.785649176	1.060303484
27	16978770	270.150606489	0.364957313
27	17024753	271.119744781	0.969138292
27	17029063	271.20773278	0.087987999
27	17080014	271.774354849	0.566622069
27	17093830	271.976412539	0.20205769
27	17108550	272.136950294	0.160537755
27	17125715	272.461789339	0.324839045
27	17131651	272.60462087	0.142831531
27	17183728	273.555236498	0.950615628
27	17206259	273.865267798	0.3100313
27	17209408	273.944512007	0.079244209
27	17234694	274.449191538	0.504679531
27	17240412	274.580035332	0.130843794
27	17295228	275.792718876	1.212683544
27	17297105	275.824696747	0.031977871
27	17297684	275.838940307	0.01424356
27	17316387	276.203949491	0.365009184
27	17318992	276.249599522	0.045650031
27	17339096	276.616276734	0.366677212
27	17384999	277.469750548	0.853473814
27	17436794	278.277604591	0.807854043
27	17466221	278.810355537	0.532750946
27	17508328	279.635173198	0.824817661
27	17523467	279.93012691	0.294953712
27	17558936	280.653024732	0.722897822
27	17562942	280.74972461	0.096699878
27	17587856	281.125985959	0.376261349
27	17595147	281.281906412	0.155920453
27	17626216	281.831239824	0.549333412
27	17679279	282.606685682	0.775445858
27	17696392	282.870751052	0.26406537
27	17774170	283.716281862	0.84553081
27	17782002	283.829475596	0.113193734
27	17800787	284.008145281	0.178669685
27	17821818	284.337590842	0.329445561
27	17830569	284.440951888	0.103361046
27	17851937	284.870929564	0.429977676
27	17853877	284.887140973	0.016211409
27	17926040	285.604625904	0.717484931
27	17975213	286.545007798	0.940381894
27	17983259	286.758092385	0.213084587
27	18009082	287.097739823	0.339647438
27	18017518	287.175339101	0.077599278
27	18030034	287.374692789	0.199353688
27	18035813	287.508957986	0.134265197
27	18056218	288.157618744	0.648660758
27	18086010	288.541043897	0.383425153
27	18090601	288.597169039	0.056125142
27	18135805	289.532214397	0.935045358
27	18144795	289.785110382	0.252895985
27	18148533	289.882461437	0.097351055
27	18206268	290.959987959	1.077526522
27	18216148	291.142940128	0.182952169
27	18225696	291.31747043	0.174530302
27	18342404	293.021952816	1.704482386
27	18348590	293.151126194	0.129173378
27	18351910	293.205829944	0.05470375
27	18355130	293.242244214	0.03641427
27	18360691	293.327356571	0.085112357
27	18365364	293.374607853	0.047251282
27	18387806	293.654183771	0.279575918
27	18407402	294.017298729	0.363114958
27	18475191	294.904735154	0.887436425
27	18516399	295.664344759	0.759609605
27	18521298	295.795264204	0.130919445
27	18547298	296.355930846	0.560666642
27	18563407	296.533264118	0.177333272
27	18606620	296.945467947	0.412203829
27	18614331	297.106669743	0.161201796
27	18614490	297.111111768	0.004442025
27	18620664	297.24731307	0.136201302
27	18644181	297.682798031	0.435484961
27	18729553	299.02012712	1.337329089
27	18739141	299.262968343	0.242841223
27	18764256	299.7867941	0.523825757
27	18830697	300.999880812	1.213086712
27	18941673	303.037958425	2.038077613
27	18958094	303.332673103	0.294714678
27	18973431	303.53712455	0.204451447
27	19038738	304.780851127	1.243726577
27	19065706	305.303449248	0.522598121
27	19077721	305.468391629	0.164942381
27	19081576	305.514103406	0.045711777
27	19093949	305.706879099	0.192775693
27	19096781	305.787131621	0.080252522
27	19117329	306.245550965	0.458419344
27	19118212	306.261858781	0.016307816
27	19119629	306.282907827	0.021049046
27	19143173	306.691727576	0.408819749
27	19172865	307.217311218	0.525583642
27	19199283	307.63470153	0.417390312
27	19208236	307.847485251	0.212783721
27	19211429	307.921585689	0.074100438
27	19277881	309.074493164	1.152907475
27	19286942	309.246750737	0.172257573
27	19366176	310.96329183	1.716541093
27	19370639	311.085508156	0.122216326
27	19375363	311.232401452	0.146893296
27	19396779	311.665112959	0.432711507
27	19398936	311.690867585	0.025754626
27	19400476	311.718560624	0.027693039
27	19402880	311.782984472	0.064423848
27	19410151	311.98734783	0.204363358
27	19431947	312.388612768	0.401264938
27	19438451	312.530545993	0.141933225
27	19450606	312.874701125	0.344155132
27	19451579	312.898455405	0.02375428
27	19456229	313.011224707	0.112769302
27	19458773	313.086970661	0.075745954
27	19497930	313.873008956	0.786038295
27	19567198	315.090419323	1.217410367
27	19573604	315.268748085	0.178328762
27	19574464	315.295315676	0.026567591
27	19586339	315.605688014	0.310372338
27	19608557	315.844720632	0.239032618
27	19615248	315.997055957	0.152335325
27	19620595	316.110035736	0.112979779
27	19666144	316.630294445	0.520258709
27	19675868	316.793990723	0.163696278
27	19721668	317.396382255	0.602391532
27	19764025	317.86133265	0.464950395
27	19831278	318.80851453	0.94718188
27	19940556	319.987409538	1.178895008
27	19944162	320.07462355	0.087214012
27	19953580	320.288689655	0.214066105
27	19964588	320.598923617	0.310233962
27	20011610	321.096992385	0.498068768
27	20015265	321.13592399	0.038931605
27	20035281	321.379040929	0.243116939
27	20077712	321.806762317	0.427721388
27	20088276	321.984996581	0.178234264
27	20091644	322.0555198	0.070523219
27	20107355	322.257563288	0.202043488
27	20120539	322.46008961	0.202526322
27	20138444	322.804268928	0.344179318
27	20211559	323.67025334	0.865984412
27	20247904	324.198665912	0.528412572
27	20310192	324.923817191	0.725151279
27	20311339	324.930369674	0.006552483
27	20411882	326.146245565	1.215875891
27	20439716	326.510901699	0.364656134
27	20440583	326.528555446	0.017653747
27	20440874	326.539572652	0.011017206
27	20481650	327.296178877	0.756606225
27	20489826	327.414780887	0.11860201
27	20537998	328.429429688	1.014648801
27	20556135	328.95506577	0.525636082
27	20604494	329.878338339	0.923272569
27	20616516	330.231206619	0.35286828
27	20619086	330.330547918	0.099341299
27	20649164	330.818785513	0.488237595
27	20657301	330.922611725	0.103826212
27	20659487	330.961494026	0.038882301
27	20684947	331.446672928	0.485178902
27	20701705	331.785636036	0.338963108
27	20711709	332.064069269	0.278433233
27	20762267	333.126517386	1.062448117
27	20789336	333.639543057	0.513025671
27	20850184	334.335000727	0.69545767
27	20888988	334.841567816	0.506567089
27	20911533	335.215993548	0.374425732
27	20954283	335.771382124	0.555388576
27	20995652	336.303241906	0.531859782
27	21001351	336.374648091	0.071406185
27	21029978	336.815641346	0.440993255
27	21079269	337.546671466	0.73103012
27	21249342	340.41674224	2.870070774
27	21264721	340.656555943	0.239813703
27	21295667	341.304341792	0.647785849
27	21306912	341.599692684	0.295350892
27	21338231	342.319272409	0.719579725
27	21346939	342.601666121	0.282393712
27	21373603	343.191170461	0.58950434
27	21403810	343.840991938	0.649821477
27	21410225	343.980240095	0.139248157
27	21439412	344.456459687	0.476219592
27	21454185	344.793083244	0.336623557
27	21556441	346.282697968	1.489614724
27	21597041	346.814209371	0.531511403
27	21619277	347.198481685	0.384272314
27	21633789	347.394557424	0.196075739
27	21811256	350.175848745	2.781291321
27	21817201	350.257329418	0.081480673
27	21855580	351.020556383	0.763226965
27	21952357	352.769219505	1.748663122
27	21969676	353.110130929	0.340911424
27	21971333	353.150477872	0.040346943
27	21989167	353.47958722	0.329109348
27	22044301	354.777911636	1.298324416
27	22091408	355.501861969	0.723950333
27	22092782	355.534814761	0.032952792
27	22110511	355.968624258	0.433809497
27	22117578	356.125842356	0.157218098
27	22139609	356.760806677	0.634964321
27	22165861	357.28239798	0.521591303
27	22227543	358.161044412	0.878646432
27	22263783	358.724194094	0.563149682
27	22296768	359.504545831	0.780351737
27	22359408	360.583920793	1.079374962
27	22432908	362.051959183	1.46803839
27	22458033	362.392079445	0.340120262
27	22458254	362.400395217	0.008315772
27	22500652	363.189111929	0.788716712
27	22638406	365.706954982	2.517843053
27	22642552	365.813206278	0.106251296
27	22645800	365.872821331	0.059615053
27	22655736	366.008030527	0.135209196
27	22752670	367.559193159	1.551162632
27	22755057	367.603814027	0.044620868
27	22796408	368.233849322	0.630035295
27	22804888	368.369124999	0.135275677
27	22833980	368.700299414	0.331174415
27	22837795	368.760810333	0.060510919
27	22858224	369.064353911	0.303543578
27	22888959	369.602128207	0.537774296
27	22932578	370.396174479	0.794046272
27	22945521	370.67321212	0.277037641
27	22952666	370.773892502	0.100680382
27	22980668	371.132698684	0.358806182
27	22985251	371.177675178	0.044976494
27	23039445	372.072542471	0.894867293
27	23043209	372.176617676	0.104075205
27	23047443	372.280079081	0.103461405
27	23219243	374.616637117	2.336558036
27	23258282	375.136938897	0.52030178
27	23301567	375.561477079	0.424538182
27	23409346	377.060172693	1.498695614
27	23440614	377.453507601	0.393334908
27	23448716	377.542669451	0.08916185
27	23457967	377.77075968	0.228090229
27	23505575	378.692048329	0.921288649
27	23546437	379.540601583	0.848553254
27	23556500	379.758137572	0.217535989
27	23570707	380.041238357	0.283100785
27	23573716	380.124494882	0.083256525
27	23596456	380.572201104	0.447706222
27	23618811	381.0845583	0.512357196
27	23663950	381.812928983	0.728370683
27	23672992	382.010039507	0.197110524
27	23707747	382.649397766	0.639358259
27	23722129	382.846038005	0.196640239
27	23731830	383.068632253	0.222594248
27	23772065	383.936659666	0.868027413
27	23821731	385.019012673	1.082353007
27	23871918	385.977016914	0.958004241
27	23874114	386.035264628	0.058247714
27	23877177	386.080947734	0.045683106
27	23891270	386.30867875	0.227731016
27	23908355	386.725959809	0.417281059
27	23960891	387.670331909	0.9443721
27	24025805	388.792100378	1.121768469
27	24047702	389.143629884	0.351529506
27	24049851	389.186388477	0.042758593
27	24056401	389.327033194	0.140644717
27	24110939	390.00760531	0.680572116
27	24113966	390.051449987	0.043844677
27	24143229	390.528456935	0.477006948
27	24157614	390.765492058	0.237035123
27	24198904	391.509204002	0.743711944
27	24248155	392.266666496	0.757462494
27	24257654	392.45583375	0.189167254
27	24292886	393.043286684	0.587452934
27	24293728	393.06402454	0.020737856
27	24318333	393.433396483	0.369371943
27	24343445	393.760444017	0.327047534
27	24344277	393.778529016	0.018084999
27	24372929	394.200514846	0.42198583
27	24445263	395.142378348	0.941863502
27	24521698	396.267648866	1.125270518
27	24555068	396.741931482	0.474282616
27	24572846	397.059194475	0.317262993
27	24648189	398.178758528	1.119564053
27	24652200	398.258364746	0.079606218
27	24709855	399.024660132	0.766295386
27	24712763	399.059883084	0.035222952
27	24714467	399.082293298	0.022410214
27	24746089	399.588854182	0.506560884
27	24760162	399.820170833	0.231316651
27	24765552	399.897256468	0.077085635
27	24777674	400.119324895	0.222068427
27	24810356	400.761233275	0.64190838
27	24844430	401.519931609	0.758698334
27	24880744	402.180841402	0.660909793
27	25022050	404.525250801	2.344409399
27	25039957	404.770799854	0.245549053
27	25130002	406.026085827	1.255285973
27	25179178	407.008097254	0.982011427
27	25199826	407.250589229	0.242491975
27	25235888	407.841809344	0.591220115
27	25242671	407.959589302	0.117779958
27	25259784	408.319848167	0.360258865
27	25294903	408.98788621	0.668038043
27	25405769	410.297308152	1.309421942
27	25618856	413.141347045	2.844038893
27	25646931	413.471309401	0.329962356
27	25648584	413.495821068	0.024511667
27	25665016	413.946388101	0.450567033
27	25777522	415.405030669	1.458642568
27	25858382	416.269092015	0.864061346
27	25863672	416.307617319	0.038525304
27	25878341	416.514371022	0.206753703
27	25893504	416.745729362	0.23135834
27	25904845	416.924650583	0.178921221
27	25987194	418.041586529	1.116935946
27	26004837	418.19280924	0.151222711
27	26011573	418.293442458	0.100633218
27	26055870	418.894822658	0.6013802
27	26063452	419.067056211	0.172233553
27	26068936	419.183082075	0.116025864
27	26088461	419.53400225	0.350920175
27	26101403	419.887803857	0.353801607
27	26177042	421.126638689	1.238834832
27	26184024	421.267083242	0.140444553
27	26199335	421.658684526	0.391601284
27	26208012	421.82306278	0.164378254
27	26212591	421.913011161	0.089948381
27	26243843	422.473304575	0.560293414
27	26286675	423.385936197	0.912631622
27	26334774	424.543185211	1.157249014
27	26415925	425.596912173	1.053726962
27	26416669	425.614870299	0.017958126
27	26576673	428.353893515	2.739023216
27	26601985	428.918528504	0.564634989
27	26672133	430.053685248	1.135156744
27	26717518	431.120217526	1.066532278
27	26756241	431.933880392	0.813662866
27	26762270	432.14805508	0.214174688
27	26784921	432.901305785	0.753250705
27	26788397	433.01879887	0.117493085
27	26854706	434.282734951	1.263936081
27	26886174	434.897090326	0.614355375
27	26921110	435.467848511	0.570758185
27	26933969	435.690991288	0.223142777
27	26960000	436.08546335	0.394472062
27	26973623	436.415630239	0.330166889
27	27007140	437.195096168	0.779465929
27	27125010	439.332374108	2.13727794
27	27187491	440.397658296	1.065284188
27	27213389	440.740359693	0.342701397
27	27353082	443.087500424	2.347140731
27	27358381	443.199234412	0.111733988
27	27370748	443.350179395	0.150944983
27	27378810	443.47895351	0.128774115
27	27381370	443.537836709	0.058883199
27	27394651	443.878797374	0.340960665
27	27401819	444.086922571	0.208125197
27	27621277	447.295581129	3.208658558
27	27658628	447.804014476	0.508433347
27	27694143	448.562157444	0.758142968
27	27744117	449.47423462	0.912077176
27	27765660	449.73086678	0.25663216
27	27849966	451.115785136	1.384918356
27	27855509	451.208370621	0.092585485
27	27856646	451.235025636	0.026655015
27	27863989	451.40858947	0.173563834
27	27864263	451.415256895	0.006667425
27	27998035	453.525521719	2.110264824
27	28021804	453.930419568	0.404897849
27	28027116	454.003741904	0.073322336
27	28058782	454.392034754	0.38829285
27	28072145	454.53459828	0.142563526
27	28074199	454.561953216	0.027354936
27	28118294	455.121290988	0.559337772
27	28158367	455.496018986	0.374727998
27	28166856	455.591355737	0.095336751
27	28262996	456.569587983	0.978232246
27	28279378	456.786060446	0.216472463
27	28287463	456.908211874	0.122151428
27	28308097	457.226542805	0.318330931
27	28322996	457.446210579	0.219667774
27	28325720	457.476954567	0.030743988
27	28381262	458.323654683	0.846700116
27	28392730	458.507389123	0.18373444
27	28407289	458.923686682	0.416297559
27	28419474	459.306342581	0.382655899
27	28425756	459.468233585	0.161891004
27	28457862	460.108606654	0.640373069
27	28458314	460.116654307	0.008047653
27	28462100	460.186955257	0.07030095
27	28510446	461.236340908	1.049385651
27	28525072	461.572395024	0.336054116
27	28559819	462.217827882	0.645432858
27	28579762	462.428181783	0.210353901
27	28614128	462.888117227	0.459935444
27	28652670	463.748104583	0.859987356
27	28658315	463.827858725	0.079754142
27	28685466	464.14831159	0.320452865
27	28751000	464.991524432	0.843212842
27	28843160	466.306446212	1.31492178
27	28847735	466.379549205	0.073102993
27	28894868	467.300523445	0.92097424
27	28922647	467.815900944	0.515377499
27	28974536	468.943061004	1.12716006
27	29009291	469.37316544	0.430104436
27	29072413	470.887638229	1.514472789
27	29133682	472.08870456	1.201066331
27	29156622	472.464069006	0.375364446
27	29165032	472.590848484	0.126779478
27	29207316	473.360878341	0.770029857
27	29256213	474.062465748	0.701587407
27	29298443	474.759087768	0.69662202
27	29334952	475.472315576	0.713227808
27	29345547	475.685872844	0.213557268
27	29370393	475.999199607	0.313326763
27	29375946	476.130343271	0.131143664
27	29388174	476.426591883	0.296248612
27	29406577	476.91134161	0.484749727
27	29406840	476.917510236	0.006168626
27	29407702	476.944534142	0.027023906
27	29410557	477.066155437	0.121621295
27	29416588	477.292583729	0.226428292
27	29437914	477.658361357	0.365777628
27	29477779	478.465445411	0.807084054
27	29487557	478.758993164	0.293547753
27	29499138	479.034831662	0.275838498
27	29544652	480.054214831	1.019383169
27	29557802	480.386349933	0.332135102
27	29575891	480.677964691	0.291614758
27	29607279	481.137569707	0.459605016
27	29651817	481.766389881	0.628820174
27	29673952	482.338784978	0.572395097
27	29698457	482.878680464	0.539895486
27	29698592	482.880621621	0.001941157
27	29707112	482.999453103	0.118831482
27	29730792	483.366831925	0.367378822
27	29771970	483.942015715	0.57518379
27	29772631	483.96035621	0.018340495
27	29796154	484.453121385	0.492765175
27	29798832	484.527369441	0.074248056
27	29841557	485.135542465	0.608173024
27	29874583	485.612180564	0.476638099
27	29905878	486.464292351	0.852111787
27	29948162	487.014757294	0.550464943
27	29964098	487.401283423	0.386526129
27	29971097	487.636534768	0.235251345
27	30035998	488.747343356	1.110808588
27	30062868	489.587528619	0.840185263
27	30065167	489.617563855	0.030035236
27	30088439	490.106886255	0.4893224
27	30105200	490.356198082	0.249311827
27	30110588	490.484267169	0.128069087
27	30124042	490.740253111	0.255985942
27	30220406	492.630157476	1.889904365
27	30326506	494.179394958	1.549237482
27	30350219	494.612146924	0.432751966
27	30433240	495.652659265	1.040512341
27	30464505	496.061317082	0.408657817
27	30560027	497.453610934	1.392293852
27	30575671	497.641135101	0.187524167
27	30586282	497.766932305	0.125797204
27	30594413	497.844258398	0.077326093
27	30654722	498.974345392	1.130086994
27	30677309	499.23954646	0.265201068
27	30686416	499.353443452	0.113896992
27	30735112	499.804622018	0.451178566
27	30765638	500.326585	0.521962982
27	30785037	500.760038101	0.433453101
27	30904244	502.743171048	1.983132947
27	30905391	502.777616616	0.034445568
27	30989220	504.023771331	1.246154715
27	31008512	504.276114759	0.252343428
27	31100177	505.798394411	1.522279652
27	31130734	506.343401823	0.545007412
27	31209733	507.482239838	1.138838015
27	31243595	508.087710401	0.605470563
27	31310164	509.083292339	0.995581938
27	31312338	509.100615128	0.017322789
27	31356311	509.688739268	0.58812414
27	31367025	509.823084444	0.134345176
27	31387027	510.154224481	0.331140037
27	31442169	510.671587833	0.517363352
27	31474592	511.14567587	0.474088037
27	31500644	511.584436756	0.438760886
27	31517278	511.841924216	0.25748746
27	31574601	512.826686833	0.984762617
27	31583363	513.059620842	0.232934009
27	31588550	513.198524892	0.13890405
27	31612371	513.76730035	0.568775458
27	31625047	514.120727761	0.353427411
27	31638832	514.46973518	0.349007419
27	31659035	514.97927037	0.50953519
27	31675571	515.105602684	0.126332314
27	31707960	515.72698115	0.621378466
27	31728343	516.320141128	0.593159978
27	31757808	516.738879771	0.418738643
27	31767968	516.877913198	0.139033427
27	31808344	517.442830866	0.564917668
27	31820692	517.800110217	0.357279351
27	31842871	518.277851009	0.477740792
27	31909812	519.352293029	1.07444202
27	31919951	519.524391375	0.172098346
27	31934551	519.687631644	0.163240269
27	31954135	519.896863389	0.209231745
27	31972525	520.20344006	0.306576671
27	31972607	520.205743196	0.002303136
27	31993705	520.517367709	0.311624513
27	32057628	521.654653232	1.137285523
27	32057781	521.657564632	0.0029114
27	32099936	522.254731472	0.59716684
27	32121909	522.792087221	0.537355749
27	32122206	522.799413664	0.007326443
27	32209420	524.440705078	1.641291414
27	32231254	524.682510587	0.241805509
27	32238406	524.786028156	0.103517569
27	32256101	525.067878099	0.281849943
27	32270053	525.362260119	0.29438202
27	32279055	525.61024198	0.247981861
27	32295675	526.017685493	0.407443513
27	32300617	526.1179594	0.100273907
27	32316754	526.372608719	0.254649319
27	32336770	526.680761172	0.308152453
27	32347303	526.949223651	0.268462479
27	32404034	528.028336657	1.079113006
27	32431397	528.687428688	0.659092031
27	32432498	528.716221124	0.028792436
27	32469927	529.54336172	0.827140596
27	32485601	529.774319022	0.230957302
27	32512403	530.096444022	0.322125
27	32524754	530.408884777	0.312440755
27	32554129	531.009193927	0.60030915
27	32591042	531.644212814	0.635018887
27	32598411	531.783105728	0.138892914
27	32605461	531.95291715	0.169811422
27	32606640	531.983328901	0.030411751
27	32636395	532.457723319	0.474394418
27	32641378	532.599329497	0.141606178
27	32651540	532.807448014	0.208118517
27	32652231	532.827396849	0.019948835
27	32683453	533.310027095	0.482630246
27	32768752	535.322863869	2.012836774
27	32769525	535.346980975	0.024117106
27	32775548	535.548033558	0.201052583
27	32782576	535.7271869	0.179153342
27	32796179	536.148731294	0.421544394
27	32807909	536.374066117	0.225334823
27	32817475	536.585428237	0.21136212
27	32872434	537.530922291	0.945494054
27	32889573	538.067713112	0.536790821
27	32909124	538.384958899	0.317245787
27	32924653	538.757556306	0.372597407
27	32935954	538.999531053	0.241974747
27	32937447	539.032538708	0.033007655
27	32970591	539.900196842	0.867658134
27	32981166	540.129313101	0.229116259
27	32991724	540.429180832	0.299867731
27	33031143	541.200498393	0.771317561
27	33083134	542.3350078	1.134509407
27	33089083	542.527614286	0.192606486
27	33101893	542.669061958	0.141447672
27	33125707	543.043294914	0.374232956
27	33158864	543.460861876	0.417566962
27	33167591	543.728950953	0.268089077
27	33184473	544.08060281	0.351651857
27	33207035	544.528032814	0.447430004
27	33216253	544.643158143	0.115125329
27	33241786	545.156115206	0.512957063
27	33242663	545.175224896	0.01910969
27	33337084	546.895752961	1.720528065
27	33349350	547.177372979	0.281620018