version 2
run ChordDht-2-20211203-23:53:06-3224
attr Lifetime 300s
attr configname ChordDht
attr datetime 20211203-23:53:06
attr experiment ChordDht
attr inifile configs.ini
attr iterationvars $Lifetime=300s
attr iterationvars2 "$Lifetime=300s, $repetition=0"
attr measurement $Lifetime=300s
attr network oversim.underlay.simpleunderlay.SimpleUnderlayNetwork
attr processid 3224
attr repetition 0
attr replication #0
attr resultdir results
attr runnumber 2
attr seedset 2

vector 13  SimpleUnderlayNetwork.globalObserver.globalStatistics  "GlobalNodeList: Number of nodes"  ETV
vector 14  SimpleUnderlayNetwork.globalObserver.globalStatistics  "GlobalDhtTestMap: Number of stored DHT entries"  ETV
vector 15  SimpleUnderlayNetwork.globalObserver.globalStatistics  "LifetimeChurn: Time between deletes"  ETV
vector 16  SimpleUnderlayNetwork.globalObserver.globalStatistics  "LifetimeChurn: Session Time"  ETV
vector 17  SimpleUnderlayNetwork.globalObserver.globalStatistics  "LifetimeChurn: Time between creates"  ETV
13	1136369	200	1013
13	1436138	250	1039
13	1750141	300	1033
13	2039794	350	1065
13	2315748	400	1040
13	2601349	450	1040
13	2841206	500	1007
13	3084427	550	1009
13	3312432	600	1031
13	3553682	650	1020
13	3782074	700	1030
13	4016811	750	1049
13	4249040	800	1027
13	4465043	850	1029
13	4679496	900	997
13	4904022	950	1018
13	5127989	1000	1031
13	5346395	1050	1019
13	5558654	1100	1013
13	5771579	1150	1011
14	1136370	200	1321
14	1199858	210	1479
14	1262875	220	1620
14	1316528	230	1751
14	1373012	240	1908
14	1436139	250	2034
14	1500252	260	2206
14	1562879	270	2336
14	1625760	280	2488
14	1685210	290	2654
14	1750142	300	2787
14	1806339	310	2934
14	1866240	320	3102
14	1927959	330	3250
14	1986217	340	3391
14	2039795	350	3546
14	2089678	360	3703
14	2145111	370	3847
14	2202888	380	4005
14	2258561	390	4154
14	2315749	400	4302
14	2375283	410	4357
14	2437658	420	4430
14	2492420	430	4441
14	2548556	440	4443
14	2601350	450	4413
14	2651274	460	4423
14	2699761	470	4432
14	2745279	480	4436
14	2795798	490	4490
14	2841207	500	4478
14	2886728	510	4463
14	2939539	520	4457
14	2985648	530	4454
14	3032816	540	4442
14	3084428	550	4486
14	3130306	560	4476
14	3175304	570	4486
14	3218011	580	4483
14	3264138	590	4453
14	3312433	600	4454
14	3361398	610	4480
14	3409295	620	4468
14	3457144	630	4463
14	3506913	640	4464
14	3553683	650	4436
14	3602434	660	4413
14	3648586	670	4419
14	3695303	680	4430
14	3738240	690	4426
14	3782075	700	4413
14	3827801	710	4437
14	3874635	720	4382
14	3920695	730	4409
14	3970089	740	4422
14	4016812	750	4412
14	4065232	760	4423
14	4107671	770	4433
14	4157018	780	4431
14	4202830	790	4392
14	4249041	800	4424
14	4291064	810	4414
14	4333906	820	4432
14	4377328	830	4449
14	4419242	840	4435
14	4465044	850	4422
14	4511665	860	4422
14	4556018	870	4427
14	4598859	880	4421
14	4636974	890	4427
14	4679497	900	4432
14	4724843	910	4410
14	4768835	920	4411
14	4813593	930	4397
14	4858331	940	4409
14	4904023	950	4406
14	4944867	960	4423
14	4990876	970	4432
14	5036596	980	4400
14	5081906	990	4423
14	5127990	1000	4429
14	5170581	1010	4410
14	5214867	1020	4418
14	5261056	1030	4398
14	5303513	1040	4400
14	5346396	1050	4416
14	5391232	1060	4403
14	5434724	1070	4382
14	5475253	1080	4399
14	5517545	1090	4390
14	5558655	1100	4368
14	5600902	1110	4401
14	5645232	1120	4381
14	5688482	1130	4371
14	5730671	1140	4362
14	5771580	1150	4365
14	5813251	1160	4357
14	5852957	1170	4354
14	5895823	1180	4365
14	5935192	1190	4325
15	1137130	200.116503688	0.541134227
15	1139776	200.605812773	0.489309085
15	1140818	200.789638676	0.183825903
15	1142714	201.09049557	0.300856894
15	1148383	201.823074512	0.732578942
15	1148393	201.82445038	0.001375868
15	1150489	202.132700195	0.308249815
15	1150530	202.14048508	0.007784885
15	1153491	202.76543326	0.62494818
15	1153492	202.765827453	0.000394193
15	1155872	203.21906486	0.453237407
15	1157867	203.521915526	0.302850666
15	1158693	203.648505372	0.126589846
15	1158749	203.659314448	0.010809076
15	1159627	203.804040416	0.144725968
15	1166195	204.712602872	0.908562456
15	1166830	204.802848955	0.090246083
15	1172845	205.689148036	0.886299081
15	1174198	205.92985391	0.240705874
15	1175962	206.235461952	0.305608042
15	1177678	206.446447175	0.210985223
15	1180173	206.79762365	0.351176475
15	1185923	207.605436196	0.807812546
15	1186469	207.696077909	0.090641713
15	1193368	208.903447587	1.207369678
15	1193903	209.013124422	0.109676835
15	1198375	209.794712966	0.781588544
15	1201894	210.269851166	0.4751382
15	1205886	210.756407409	0.486556243
15	1207413	210.981916491	0.225509082
15	1208104	211.076611577	0.094695086
15	1208487	211.121438436	0.044826859
15	1211977	211.755248722	0.633810286
15	1215577	212.292257668	0.537008946
15	1216050	212.354579196	0.062321528
15	1216615	212.428329499	0.073750303
15	1217209	212.523131537	0.094802038
15	1222676	213.333028679	0.809897142
15	1224057	213.555500488	0.222471809
15	1224937	213.6973279	0.141827412
15	1226203	213.92077933	0.22345143
15	1227868	214.210379368	0.289600038
15	1229987	214.504280279	0.293900911
15	1231598	214.726544726	0.222264447
15	1231899	214.772344156	0.04579943
15	1232933	214.919097676	0.14675352
15	1236616	215.501941701	0.582844025
15	1237072	215.596931018	0.094989317
15	1237315	215.635747313	0.038816295
15	1244328	216.887969685	1.252222372
15	1246713	217.228445228	0.340475543
15	1247138	217.290458561	0.062013333
15	1248533	217.510467527	0.220008966
15	1249384	217.643560915	0.133093388
15	1255743	218.611093383	0.967532468
15	1260381	219.570696184	0.959602801
15	1263820	220.1755979	0.604901716
15	1264364	220.305670595	0.130072695
15	1268726	221.046830647	0.741160052
15	1269756	221.215292055	0.168461408
15	1270576	221.361433071	0.146141016
15	1271375	221.543896286	0.182463215
15	1273858	221.962695907	0.418799621
15	1274303	222.05989018	0.097194273
15	1277133	222.589496902	0.529606722
15	1278440	222.877313349	0.287816447
15	1278916	222.980151844	0.102838495
15	1279342	223.067289186	0.087137342
15	1281228	223.424308237	0.357019051
15	1283242	223.862084456	0.437776219
15	1286642	224.471154594	0.609070138
15	1287523	224.650907471	0.179752877
15	1287746	224.702869037	0.051961566
15	1289197	224.956084536	0.253215499
15	1289204	224.959539784	0.003455248
15	1289891	225.085781312	0.126241528
15	1290055	225.119073916	0.033292604
15	1290676	225.205117819	0.086043903
15	1293700	225.748358104	0.543240285
15	1294173	225.843835716	0.095477612
15	1294580	225.917368501	0.073532785
15	1302194	227.243044843	1.325676342
15	1304565	227.695294701	0.452249858
15	1305084	227.807090335	0.111795634
15	1305471	227.882852939	0.075762604
15	1306492	228.064952921	0.182099982
15	1306695	228.103537761	0.03858484
15	1309194	228.606066342	0.502528581
15	1310498	228.880427889	0.274361547
15	1311308	229.061853518	0.181425629
15	1311607	229.120211809	0.058358291
15	1315947	229.899706037	0.779494228
15	1316975	230.07945318	0.179747143
15	1317066	230.101864244	0.022411064
15	1319258	230.498173797	0.396309553
15	1319940	230.629205515	0.131031718
15	1323737	231.263991008	0.634785493
15	1324571	231.390644017	0.126653009
15	1324633	231.399262464	0.008618447
15	1327093	231.760391731	0.361129267
15	1327751	231.828546324	0.068154593
15	1330359	232.213288573	0.384742249
15	1333644	232.775086118	0.561797545
15	1338481	233.621396731	0.846310613
15	1338595	233.646600704	0.025203973
15	1338907	233.699432788	0.052832084
15	1340705	234.003190589	0.303757801
15	1342549	234.272532277	0.269341688
15	1349621	235.652585855	1.380053578
15	1350690	235.849304221	0.196718366
15	1354185	236.411503597	0.562199376
15	1354723	236.51650593	0.105002333
15	1354791	236.533981399	0.017475469
15	1355323	236.64368414	0.109702741
15	1356586	236.854453631	0.210769491
15	1356702	236.878577898	0.024124267
15	1356789	236.896976888	0.01839899
15	1357846	237.073013786	0.176036898
15	1357973	237.090793243	0.017779457
15	1358239	237.145740264	0.054947021
15	1360322	237.548951172	0.403210908
15	1362450	237.919190038	0.370238866
15	1363919	238.2059011	0.286711062
15	1366113	238.539977592	0.334076492
15	1366299	238.56956329	0.029585698
15	1367546	238.827666265	0.258102975
15	1370825	239.529628346	0.701962081
15	1371092	239.577045495	0.047417149
15	1371669	239.718372571	0.141327076
15	1371976	239.796366656	0.077994085
15	1376394	240.498625519	0.702258863
15	1380806	241.269501404	0.770875885
15	1381654	241.455109326	0.185607922
15	1381664	241.457594477	0.002485151
15	1381803	241.489680689	0.032086212
15	1382271	241.583110344	0.093429655
15	1382652	241.652401941	0.069291597
15	1385086	242.027001325	0.374599384
15	1385496	242.099571671	0.072570346
15	1385534	242.103450108	0.003878437
15	1393234	243.175172361	1.071722253
15	1397739	243.826843162	0.651670801
15	1398743	243.954906715	0.128063553
15	1398851	243.967955834	0.013049119
15	1401635	244.355543323	0.387587489
15	1402183	244.454178538	0.098635215
15	1404029	244.851836581	0.397658043
15	1408278	245.482664523	0.630827942
15	1410144	245.803956863	0.32129234
15	1413342	246.386070889	0.582114026
15	1413391	246.395348464	0.009277575
15	1414478	246.550576496	0.155228032
15	1415804	246.768336125	0.217759629
15	1421539	247.744960846	0.976624721
15	1421599	247.755551881	0.010591035
15	1421922	247.812917464	0.057365583
15	1423697	248.077973714	0.26505625
15	1424028	248.136456282	0.058482568
15	1426835	248.548386074	0.411929792
15	1430085	249.07344157	0.525055496
15	1430292	249.098901651	0.025460081
15	1434292	249.657874062	0.558972411
15	1435816	249.945898252	0.28802419
15	1438234	250.359333626	0.413435374
15	1439085	250.493573893	0.134240267
15	1439915	250.63595923	0.142385337
15	1442936	251.114338736	0.478379506
15	1443713	251.243593254	0.129254518
15	1443868	251.274616283	0.031023029
15	1445281	251.541794761	0.267178478
15	1445352	251.554195818	0.012401057
15	1447135	251.838957267	0.284761449
15	1449776	252.321145687	0.48218842
15	1449886	252.346707848	0.025562161
15	1450664	252.503965772	0.157257924
15	1451836	252.738532476	0.234566704
15	1454542	253.344602712	0.606070236
15	1455189	253.488981418	0.144378706
15	1459539	254.241193637	0.752212219
15	1463278	254.643040926	0.401847289
15	1463799	254.719442067	0.076401141
15	1464823	254.878023105	0.158581038
15	1469500	255.591895115	0.71387201
15	1470844	255.755806065	0.16391095
15	1477927	256.861540404	1.105734339
15	1482026	257.422654685	0.561114281
15	1484845	257.778321296	0.355666611
15	1488866	258.231940469	0.453619173
15	1489543	258.311960675	0.080020206
15	1491347	258.545544969	0.233584294
15	1494254	259.029481145	0.483936176
15	1495991	259.320632396	0.291151251
15	1496461	259.401433275	0.080800879
15	1498637	259.764030453	0.362597178
15	1499066	259.827051389	0.063020936
15	1502455	260.31576434	0.488712951
15	1504722	260.665320546	0.349556206
15	1507195	261.09923977	0.433919224
15	1509038	261.461641318	0.362401548
15	1509920	261.647982005	0.186340687
15	1510449	261.746394465	0.09841246
15	1511444	261.933496462	0.187101997
15	1511941	262.011980037	0.078483575
15	1512159	262.058757223	0.046777186
15	1513494	262.298933871	0.240176648
15	1516542	262.721647292	0.422713421
15	1516697	262.743856564	0.022209272
15	1520147	263.354530374	0.61067381
15	1520974	263.488423314	0.13389294
15	1522019	263.633745335	0.145322021
15	1524715	264.014551649	0.380806314
15	1530944	264.973850681	0.959299032
15	1532278	265.192270796	0.218420115
15	1535006	265.579799708	0.387528912
15	1537251	265.985085472	0.405285764
15	1538931	266.217201615	0.232116143
15	1539659	266.341946285	0.12474467
15	1548384	267.784209661	1.442263376
15	1551595	268.394679474	0.610469813
15	1553412	268.790913556	0.396234082
15	1554939	269.066374949	0.275461393
15	1556155	269.232193153	0.165818204
15	1560779	269.750545692	0.518352539
15	1567094	270.633136473	0.882590781
15	1567511	270.687677391	0.054540918
15	1569706	271.060740739	0.373063348
15	1571875	271.35700996	0.296269221
15	1579931	272.665649851	1.308639891
15	1580278	272.727752956	0.062103105
15	1581378	272.917146284	0.189393328
15	1585180	273.523730947	0.606584663
15	1585957	273.668669111	0.144938164
15	1586343	273.72204017	0.053371059
15	1589687	274.233119989	0.511079819
15	1592700	274.701406987	0.468286998
15	1596903	275.298835226	0.597428239
15	1597333	275.377162613	0.078327387
15	1599881	275.762411949	0.385249336
15	1600942	275.973800806	0.211388857
15	1603732	276.533940785	0.560139979
15	1604445	276.689089435	0.15514865
15	1605408	276.862849693	0.173760258
15	1607551	277.178442332	0.315592639
15	1610100	277.614009814	0.435567482
15	1610122	277.616949507	0.002939693
15	1610169	277.628397275	0.011447768
15	1610621	277.698014471	0.069617196
15	1613576	278.1778675	0.479853029
15	1614265	278.295703436	0.117835936
15	1617059	278.672167511	0.376464075
15	1620273	279.082624558	0.410457047
15	1620297	279.088449483	0.005824925
15	1620327	279.093854104	0.005404621
15	1620931	279.194575275	0.100721171
15	1621631	279.314414145	0.11983887
15	1623267	279.55808496	0.243670815
15	1625175	279.921372501	0.363287541
15	1629833	280.630613477	0.709240976
15	1631239	280.861446499	0.230833022
15	1634411	281.501677594	0.640231095
15	1637443	281.924025635	0.422348041
15	1637726	281.971117211	0.047091576
15	1637786	281.975829758	0.004712547
15	1638785	282.108365841	0.132536083
15	1639359	282.223840889	0.115475048
15	1641396	282.559986993	0.336146104
15	1641417	282.562014694	0.002027701
15	1643801	282.922086301	0.360071607
15	1644056	282.971782437	0.049696136
15	1644760	283.101303569	0.129521132
15	1646011	283.31208798	0.210784411
15	1646336	283.365071642	0.052983662
15	1646407	283.381167465	0.016095823
15	1648099	283.648195532	0.267028067
15	1648262	283.678579176	0.030383644
15	1651386	284.166532087	0.487952911
15	1651966	284.260332023	0.093799936
15	1652136	284.290129433	0.02979741
15	1653473	284.5598535	0.269724067
15	1654762	284.853082053	0.293228553
15	1654971	284.89689351	0.043811457
15	1655943	285.098925107	0.202031597
15	1657042	285.346137473	0.247212366
15	1660603	286.053465429	0.707327956
15	1663329	286.567780861	0.514315432
15	1663828	286.673317306	0.105536445
15	1664995	286.895629907	0.222312601
15	1667078	287.161143	0.265513093
15	1669153	287.435368185	0.274225185
15	1670131	287.565556409	0.130188224
15	1672825	287.953452197	0.387895788
15	1675136	288.298905913	0.345453716
15	1676845	288.523953322	0.225047409
15	1678492	288.812904046	0.288950724
15	1683348	289.6380732	0.825169154
15	1683413	289.650015559	0.011942359
15	1684645	289.895783116	0.245767557
15	1687816	290.371883631	0.476100515
15	1688421	290.418721803	0.046838172
15	1692274	290.91313702	0.494415217
15	1693246	291.069442748	0.156305728
15	1693247	291.069585155	0.000142407
15	1693787	291.17556032	0.105975165
15	1698852	291.811079294	0.635518974
15	1708583	293.222512635	1.411433341
15	1711581	293.702767293	0.480254658
15	1712392	293.818364273	0.11559698
15	1718361	294.767934594	0.949570321
15	1719044	294.871148128	0.103213534
15	1720433	295.080860217	0.209712089
15	1721351	295.246504189	0.165643972
15	1724915	295.747858083	0.501353894
15	1727268	296.163664148	0.415806065
15	1730226	296.664387837	0.500723689
15	1730693	296.752939897	0.08855206
15	1733733	297.271444298	0.518504401
15	1734122	297.323636378	0.05219208
15	1737906	297.886435971	0.562799593
15	1745255	299.085079098	1.198643127
15	1745403	299.116689549	0.031610451
15	1745915	299.241003736	0.124314187
15	1747712	299.613802592	0.372798856
15	1748144	299.650858461	0.037055869
15	1749270	299.868174029	0.217315568
15	1750344	300.038413011	0.170238982
15	1751967	300.405553937	0.367140926
15	1752767	300.579235599	0.173681662
15	1756721	301.499314884	0.920079285
15	1758904	301.92438927	0.425074386
15	1760537	302.248425011	0.324035741
15	1760935	302.324555467	0.076130456
15	1761774	302.48858632	0.164030853
15	1761996	302.527288268	0.038701948
15	1763250	302.742595712	0.215307444
15	1767151	303.460380406	0.717784694
15	1767336	303.488981512	0.028601106
15	1768139	303.661101514	0.172120002
15	1768882	303.823430445	0.162328931
15	1769949	304.020824767	0.197394322
15	1773923	304.772490492	0.751665725
15	1773987	304.789327393	0.016836901
15	1775946	305.150201398	0.360874005
15	1778847	305.616950944	0.466749546
15	1781577	305.995019915	0.378068971
15	1785607	306.489580461	0.494560546
15	1786495	306.615226535	0.125646074
15	1788383	306.892856226	0.277629691
15	1788965	306.979380638	0.086524412
15	1790043	307.157168228	0.17778759
15	1796046	308.306720315	1.149552087
15	1796889	308.452508207	0.145787892
15	1800376	309.05240569	0.599897483
15	1800835	309.132213839	0.079808149
15	1801809	309.311105268	0.178891429
15	1805044	309.853333592	0.542228324
15	1812171	310.62258442	0.769250828
15	1815675	311.176341114	0.553756694
15	1819842	311.767109153	0.590768039
15	1820313	311.845743925	0.078634772
15	1828335	313.036904453	1.191160528
15	1835493	314.221883547	1.184979094
15	1835580	314.243644611	0.021761064
15	1836454	314.408992608	0.165347997
15	1837242	314.568147018	0.15915441
15	1841164	315.351895054	0.783748036
15	1841535	315.433859992	0.081964938
15	1842564	315.651849369	0.217989377
15	1844869	316.124518833	0.472669464
15	1846668	316.458984359	0.334465526
15	1850026	317.038283811	0.579299452
15	1850518	317.128102947	0.089819136
15	1853518	317.694037015	0.565934068
15	1856105	318.160576524	0.466539509
15	1858353	318.531729541	0.371153017
15	1859317	318.681806639	0.150077098
15	1859792	318.768558771	0.086752132
15	1862878	319.345537055	0.576978284
15	1871219	320.820276939	1.474739884
15	1871773	320.940591558	0.120314619
15	1872046	320.990921914	0.050330356
15	1872429	321.06032856	0.069406646
15	1874060	321.326262052	0.265933492
15	1875556	321.633238216	0.306976164
15	1876770	321.85722498	0.223986764
15	1877173	321.922909577	0.065684597
15	1879423	322.392693727	0.46978415
15	1879803	322.47177428	0.079080553
15	1879965	322.507583162	0.035808882
15	1880234	322.550361997	0.042778835
15	1881251	322.770666454	0.220304457
15	1881604	322.854657126	0.083990672
15	1882365	323.019746343	0.165089217
15	1885425	323.599911541	0.580165198
15	1887594	323.945910422	0.345998881
15	1892431	324.75412848	0.808218058
15	1892612	324.786454671	0.032326191
15	1895455	325.161054829	0.374600158
15	1895896	325.218990838	0.057936009
15	1902626	326.131136148	0.91214531
15	1903051	326.200787612	0.069651464
15	1908300	326.992446736	0.791659124
15	1911589	327.427493465	0.435046729
15	1912669	327.591048278	0.163554813
15	1913543	327.714412841	0.123364563
15	1913978	327.783809124	0.069396283
15	1916915	328.299333162	0.515524038
15	1920293	328.761903645	0.462570483
15	1920529	328.801463577	0.039559932
15	1924602	329.562889554	0.761425977
15	1925226	329.654759401	0.091869847
15	1927894	329.996444483	0.341685082
15	1930512	330.338326372	0.341881889
15	1931933	330.497336213	0.159009841
15	1932640	330.594798813	0.0974626
15	1933160	330.673691403	0.07889259
15	1933686	330.778071017	0.104379614
15	1933973	330.839252721	0.061181704
15	1938974	331.724625069	0.885372348
15	1941717	332.155833546	0.431208477
15	1942377	332.246863146	0.0910296
15	1943363	332.394410974	0.147547828
15	1948084	333.295351134	0.90094016
15	1948749	333.443575183	0.148224049
15	1948899	333.474677425	0.031102242
15	1959594	335.054308208	1.579630783
15	1964808	336.037191645	0.982883437
15	1965796	336.237750866	0.200559221
15	1968063	336.710808059	0.473057193
15	1968176	336.73944849	0.028640431
15	1969608	336.995244415	0.255795925
15	1969810	337.034621773	0.039377358
15	1971435	337.336781854	0.302160081
15	1971592	337.364412145	0.027630291
15	1971728	337.38703886	0.022626715
15	1972699	337.551403608	0.164364748
15	1976098	338.024799046	0.473395438
15	1976406	338.069839164	0.045040118
15	1976941	338.171314274	0.10147511
15	1977839	338.384811127	0.213496853
15	1978947	338.589708504	0.204897377
15	1984914	339.770815536	1.181107032
15	1985124	339.804817297	0.034001761
15	1985579	339.889774792	0.084957495
15	1986906	340.114051267	0.224276475
15	1988382	340.376872893	0.262821626
15	1989300	340.524718717	0.147845824
15	1989567	340.559466173	0.034747456
15	1990379	340.675524129	0.116057956
15	1994583	341.486550311	0.811026182
15	1994763	341.53039118	0.043840869
15	1997462	342.092420414	0.562029234
15	1997625	342.12474228	0.032321866
15	1998054	342.222441558	0.097699278
15	1998109	342.241298926	0.018857368
15	1998434	342.31110604	0.069807114
15	1999289	342.489847748	0.178741708
15	1999637	342.554785751	0.064938003
15	2000437	342.677043655	0.122257904
15	2000601	342.707785092	0.030741437
15	2001685	342.936411137	0.228626045
15	2001753	342.948518171	0.012107034
15	2002078	343.014818768	0.066300597
15	2002359	343.077660544	0.062841776
15	2004978	343.429083801	0.351423257
15	2005634	343.532843861	0.10376006
15	2007442	343.866054959	0.333211098
15	2008637	344.131535587	0.265480628
15	2008722	344.146598566	0.015062979
15	2010349	344.398869135	0.252270569
15	2010427	344.415076817	0.016207682
15	2011782	344.61813	0.203053183
15	2013045	344.8430523	0.2249223
15	2021188	346.274779369	1.431727069
15	2021791	346.438676337	0.163896968
15	2022473	346.579354935	0.140678598
15	2026228	347.311310267	0.731955332
15	2027965	347.667881964	0.356571697
15	2032006	348.422614475	0.754732511
15	2034905	349.045648853	0.623034378
15	2036931	349.454464846	0.408815993
15	2037459	349.566631102	0.112166256
15	2039839	350.007435108	0.440804006
15	2040693	350.158335025	0.150899917
15	2042574	350.457015233	0.298680208
15	2042883	350.527013289	0.069998056
15	2046642	351.320640291	0.793627002
15	2046890	351.375209467	0.054569176
15	2051260	352.272080078	0.896870611
15	2053255	352.649184942	0.377104864
15	2055394	353.029864169	0.380679227
15	2056461	353.20723483	0.177370661
15	2058794	353.686009744	0.478774914
15	2059437	353.841749324	0.15573958
15	2059916	353.955320123	0.113570799
15	2060910	354.145660797	0.190340674
15	2062997	354.565618343	0.419957546
15	2064663	354.863483421	0.297865078
15	2066517	355.123350135	0.259866714
15	2067047	355.200215694	0.076865559
15	2067385	355.264074638	0.063858944
15	2068255	355.438289669	0.174215031
15	2071124	356.12725917	0.688969501
15	2071522	356.24656767	0.1193085
15	2071828	356.318284809	0.071717139
15	2072386	356.420192899	0.10190809
15	2073409	356.609390962	0.189198063
15	2074208	356.773385225	0.163994263
15	2075188	357.008685792	0.235300567
15	2076892	357.30666445	0.297978658
15	2079104	357.642626456	0.335962006
15	2080202	357.842763672	0.200137216
15	2080390	357.880158862	0.03739519
15	2081865	358.236606327	0.356447465
15	2082267	358.312204614	0.075598287
15	2082405	358.338177758	0.025973144
15	2084573	358.832262428	0.49408467
15	2084804	358.86841499	0.036152562
15	2086347	359.140507081	0.272092091
15	2087285	359.34796843	0.207461349
15	2087967	359.563843544	0.215875114
15	2089782	360.009482267	0.445638723
15	2091141	360.227191206	0.217708939
15	2093973	360.678696487	0.451505281
15	2094120	360.709131182	0.030434695
15	2096892	361.275818747	0.566687565
15	2097820	361.491537175	0.215718428
15	2098750	361.714808873	0.223271698
15	2098800	361.730496502	0.015687629
15	2099884	361.981775954	0.251279452
15	2099908	361.991726154	0.0099502
15	2104229	362.72568749	0.733961336
15	2105991	363.016774482	0.291086992
15	2106656	363.151091431	0.134316949
15	2106896	363.197720301	0.04662887
15	2110065	363.679283244	0.481562943
15	2110778	363.826063328	0.146780084
15	2111257	363.933103999	0.107040671
15	2112738	364.207821269	0.27471727
15	2116044	364.768223061	0.560401792
15	2117790	365.114535626	0.346312565
15	2119938	365.537896121	0.423360495
15	2121462	365.891463425	0.353567304
15	2124241	366.525642362	0.634178937
15	2124796	366.623560465	0.097918103
15	2126860	367.031495463	0.407934998
15	2127759	367.189869644	0.158374181
15	2131451	367.832390369	0.642520725
15	2133670	368.24682053	0.414430161
15	2135232	368.505613566	0.258793036
15	2137820	368.923288546	0.41767498
15	2138478	369.028286429	0.104997883
15	2139894	369.267937525	0.239651096
15	2142764	369.624478855	0.35654133
15	2143540	369.722788002	0.098309147
15	2144240	369.853236394	0.130448392
15	2146511	370.238725743	0.385489349
15	2149389	370.719444913	0.48071917
15	2149871	370.809387352	0.089942439
15	2153972	371.515543287	0.706155935
15	2154176	371.545467838	0.029924551
15	2155568	371.790700707	0.245232869
15	2157125	372.118790018	0.328089311
15	2158081	372.322826172	0.204036154
15	2159084	372.522659739	0.199833567
15	2160472	372.828192921	0.305533182
15	2161736	373.138573884	0.310380963
15	2162453	373.34024207	0.201668186
15	2167083	374.046145524	0.705903454
15	2168138	374.216825129	0.170679605
15	2168664	374.291410669	0.07458554
15	2172368	374.964226658	0.672815989
15	2174898	375.446891214	0.482664556
15	2178135	375.959777102	0.512885888
15	2180316	376.266089164	0.306312062
15	2180722	376.325773189	0.059684025
15	2182518	376.593681656	0.267908467
15	2183322	376.786271904	0.192590248
15	2183475	376.833001577	0.046729673
15	2183962	376.923932584	0.090931007
15	2184316	376.979843078	0.055910494
15	2184809	377.093969441	0.114126363
15	2191511	378.15020971	1.056240269
15	2192611	378.299326837	0.149117127
15	2196652	378.856248419	0.556921582
15	2197965	379.030257983	0.174009564
15	2198224	379.075463607	0.045205624
15	2198426	379.111036506	0.035572899
15	2198441	379.112391598	0.001355092
15	2198878	379.188945219	0.076553621
15	2207025	380.581520844	1.392575625
15	2208179	380.752558115	0.171037271
15	2208254	380.763901424	0.011343309
15	2208572	380.822928878	0.059027454
15	2212083	381.504927308	0.68199843
15	2212773	381.673081857	0.168154549
15	2214061	381.944009697	0.27092784
15	2214276	381.992782974	0.048773277
15	2216146	382.434658303	0.441875329
15	2216348	382.483189434	0.048531131
15	2220308	383.32128464	0.838095206
15	2222751	383.696939854	0.375655214
15	2222881	383.712759886	0.015820032
15	2223826	383.858278459	0.145518573
15	2225839	384.130247655	0.271969196
15	2232046	385.021735974	0.891488319
15	2234189	385.456482477	0.434746503
15	2236719	385.830341217	0.37385874
15	2243111	386.939380061	1.109038844
15	2244415	387.24833037	0.308950309
15	2244761	387.323843302	0.075512932
15	2248279	388.161202185	0.837358883
15	2251663	388.722905056	0.561702871
15	2251861	388.775240489	0.052335433
15	2252040	388.800814453	0.025573964
15	2252211	388.841777967	0.040963514
15	2256685	389.672502798	0.830724831
15	2258016	389.90020012	0.227697322
15	2258057	389.910253444	0.010053324
15	2258633	390.016653234	0.10639979
15	2259375	390.180978954	0.16432572
15	2261112	390.479985027	0.299006073
15	2266103	391.230575717	0.75059069
15	2266921	391.3381511	0.107575383
15	2267194	391.384864195	0.046713095
15	2267659	391.455968186	0.071103991
15	2272757	392.162381461	0.706413275
15	2273924	392.317001894	0.154620433
15	2274362	392.383494998	0.066493104
15	2274528	392.420921553	0.037426555
15	2275561	392.641380267	0.220458714
15	2275580	392.649881823	0.008501556
15	2276204	392.764976866	0.115095043
15	2276861	392.834961653	0.069984787
15	2277105	392.872469751	0.037508098
15	2277294	392.903660751	0.031191
15	2277944	392.988853771	0.08519302
15	2279203	393.159849856	0.170996085
15	2280593	393.428059789	0.268209933
15	2280959	393.498392514	0.070332725
15	2287359	394.665495309	1.167102795
15	2289156	394.954586004	0.289090695
15	2290344	395.164631512	0.210045508
15	2291316	395.341840592	0.17720908
15	2291452	395.365853969	0.024013377
15	2291828	395.440774011	0.074920042
15	2294216	395.889848845	0.449074834
15	2294342	395.92134159	0.031492745
15	2295560	396.254259792	0.332918202
15	2295988	396.344449376	0.090189584
15	2299389	397.053490537	0.709041161
15	2299600	397.103189292	0.049698755
15	2300561	397.302659799	0.199470507
15	2303626	397.807610272	0.504950473
15	2304957	398.095551229	0.287940957
15	2310232	398.921808778	0.826257549
15	2312485	399.27045607	0.348647292
15	2313660	399.496395401	0.225939331
15	2314831	399.828463782	0.332068381
15	2315066	399.888359992	0.05989621
15	2316413	400.127243848	0.238883856
15	2316501	400.138878792	0.011634944
15	2317555	400.309263115	0.170384323
15	2321509	400.865721422	0.556458307
15	2323322	401.272934144	0.407212722
15	2323469	401.305240974	0.03230683
15	2324121	401.431546049	0.126305075
15	2324338	401.465074354	0.033528305
15	2325501	401.602027525	0.136953171
15	2327790	401.938842054	0.336814529
15	2328211	402.02635264	0.087510586
15	2330527	402.508959406	0.482606766
15	2332984	403.063620118	0.554660712
15	2339348	403.997747107	0.934126989
15	2340255	404.080937914	0.083190807
15	2340869	404.154034977	0.073097063
15	2343664	404.658426492	0.504391515
15	2343796	404.688912978	0.030486486
15	2345120	404.918953926	0.230040948
15	2346645	405.113385762	0.194431836
15	2346917	405.149338215	0.035952453
15	2348020	405.32278159	0.173443375
15	2350050	405.730116852	0.407335262
15	2350468	405.819666846	0.089549994
15	2350636	405.84833411	0.028667264
15	2350748	405.876005022	0.027670912
15	2352665	406.225967838	0.349962816
15	2355983	406.787388611	0.561420773
15	2357824	407.088562437	0.301173826
15	2361030	407.579394545	0.490832108
15	2361189	407.603355184	0.023960639
15	2361812	407.711772026	0.108416842
15	2362637	407.876287901	0.164515875
15	2363099	407.97249809	0.096210189
15	2364495	408.170500636	0.198002546
15	2365191	408.250322331	0.079821695
15	2366044	408.367189417	0.116867086
15	2366237	408.394231672	0.027042255
15	2369649	408.981891356	0.587659684
15	2370781	409.201195379	0.219304023
15	2377524	410.440310911	1.239115532
15	2378098	410.567147846	0.126836935
15	2378184	410.580660908	0.013513062
15	2381045	411.061038237	0.480377329
15	2381238	411.101197789	0.040159552
15	2381307	411.114724968	0.013527179
15	2381762	411.201732725	0.087007757
15	2382278	411.308904214	0.107171489
15	2384428	411.728309078	0.419404864
15	2384912	411.812245536	0.083936458
15	2385063	411.846950042	0.034704506
15	2386872	412.158486412	0.31153637
15	2386987	412.177086739	0.018600327
15	2387626	412.287896077	0.110809338
15	2391004	412.830468648	0.542572571
15	2391085	412.845468434	0.014999786
15	2391839	412.958983814	0.11351538
15	2393462	413.168357269	0.209373455
15	2395005	413.426057556	0.257700287
15	2397318	413.881435788	0.455378232
15	2397667	413.943714318	0.06227853
15	2398836	414.119807125	0.176092807