version 2
run ChordDht-5-20211204-00:46:42-3224
attr Lifetime 600s
attr configname ChordDht
attr datetime 20211204-00:46:42
attr experiment ChordDht
attr inifile configs.ini
attr iterationvars $Lifetime=600s
attr iterationvars2 "$Lifetime=600s, $repetition=0"
attr measurement $Lifetime=600s
attr network oversim.underlay.simpleunderlay.SimpleUnderlayNetwork
attr processid 3224
attr repetition 0
attr replication #0
attr resultdir results
attr runnumber 5
attr seedset 5

vector 31  SimpleUnderlayNetwork.globalObserver.globalStatistics  "GlobalNodeList: Number of nodes"  ETV
vector 32  SimpleUnderlayNetwork.globalObserver.globalStatistics  "GlobalDhtTestMap: Number of stored DHT entries"  ETV
vector 33  SimpleUnderlayNetwork.globalObserver.globalStatistics  "LifetimeChurn: Session Time"  ETV
vector 34  SimpleUnderlayNetwork.globalObserver.globalStatistics  "LifetimeChurn: Time between creates"  ETV
vector 35  SimpleUnderlayNetwork.globalObserver.globalStatistics  "LifetimeChurn: Time between deletes"  ETV
31	1191304	200	1005
31	1545761	250	1010
31	1934843	300	1005
31	2306267	350	1014
31	2672396	400	1027
31	3047315	450	1003
31	3388977	500	993
31	3750825	550	983
31	4093850	600	988
31	4436941	650	993
31	4781924	700	975
31	5104819	750	991
31	5439851	800	989
31	5758190	850	976
31	6076553	900	964
31	6386763	950	959
31	6699536	1000	961
31	6999678	1050	955
31	7305644	1100	965
31	7633265	1150	1000
32	1191305	200	1461
32	1266730	210	1646
32	1349919	220	1808
32	1415959	230	1955
32	1473572	240	2090
32	1545762	250	2226
32	1621616	260	2381
32	1702549	270	2566
32	1779831	280	2752
32	1858601	290	2887
32	1934844	300	3026
32	2012887	310	3160
32	2086793	320	3321
32	2162099	330	3499
32	2242728	340	3664
32	2306268	350	3831
32	2363088	360	3951
32	2435342	370	4105
32	2511553	380	4249
32	2594636	390	4427
32	2672397	400	4615
32	2749098	410	4682
32	2824415	420	4703
32	2904269	430	4683
32	2977525	440	4651
32	3047316	450	4653
32	3125142	460	4675
32	3187542	470	4716
32	3253208	480	4709
32	3321134	490	4702
32	3388978	500	4679
32	3463409	510	4667
32	3536632	520	4686
32	3606319	530	4682
32	3678094	540	4689
32	3750826	550	4696
32	3818631	560	4684
32	3891825	570	4667
32	3969630	580	4659
32	4031811	590	4664
32	4093851	600	4681
32	4160594	610	4690
32	4226114	620	4666
32	4296069	630	4653
32	4370796	640	4668
32	4436942	650	4653
32	4509039	660	4670
32	4578606	670	4679
32	4648910	680	4655
32	4713967	690	4628
32	4781925	700	4615
32	4839306	710	4619
32	4900326	720	4641
32	4966453	730	4651
32	5033464	740	4629
32	5104820	750	4613
32	5173054	760	4582
32	5242270	770	4584
32	5307608	780	4600
32	5374317	790	4621
32	5439852	800	4598
32	5502360	810	4587
32	5575277	820	4583
32	5631610	830	4572
32	5692467	840	4595
32	5758191	850	4598
32	5820493	860	4603
32	5888667	870	4589
32	5952364	880	4557
32	6014523	890	4558
32	6076554	900	4572
32	6139136	910	4569
32	6198624	920	4570
32	6262505	930	4573
32	6327597	940	4545
32	6386764	950	4537
32	6443375	960	4541
32	6506591	970	4524
32	6567962	980	4558
32	6634976	990	4572
32	6699537	1000	4534
32	6761371	1010	4518
32	6819914	1020	4508
32	6882032	1030	4508
32	6939033	1040	4524
32	6999679	1050	4535
32	7061973	1060	4505
32	7120635	1070	4483
32	7175108	1080	4493
32	7235775	1090	4495
32	7305645	1100	4501
32	7367429	1110	4494
32	7435402	1120	4479
32	7501012	1130	4480
32	7568410	1140	4466
32	7633266	1150	4488
32	7697544	1160	4480
32	7760476	1170	4489
32	7821152	1180	4495
32	7877550	1190	4473
33	1195945	200.572268301	1564.325718401
33	1196870	200.708001457	398.75946932
33	1198272	200.870854586	3.333427785
33	1204181	201.761055863	1329.637457747
33	1210089	202.495136521	954.201098215
33	1213921	202.998871303	639.073234729
33	1224536	204.458520346	258.175344231
33	1232230	205.534909288	146.730648182
33	1233817	205.749161515	1002.121631955
33	1247073	207.43718711	71.598981603
33	1250576	207.917259153	1844.459580982
33	1253213	208.339812944	1646.54907284
33	1255806	208.686564381	910.874974314
33	1258403	209.069787823	12.564818241
33	1272090	210.772207415	180.157444137
33	1276035	211.199299809	284.072572225
33	1276407	211.240269039	310.345252645
33	1278318	211.499900863	92.060194724
33	1279016	211.599121248	647.690567498
33	1282321	212.059788031	235.741353926
33	1284463	212.3430212	1026.104355665
33	1286763	212.604748249	596.276366395
33	1286900	212.618266485	12.040903409
33	1290503	212.962480709	32.126251046
33	1297494	213.730468432	1208.635264006
33	1305314	214.58727411	987.905114009
33	1306377	214.733534135	471.558848342
33	1308918	215.083276971	662.698237043
33	1310839	215.30442592	230.106582909
33	1321551	216.500740928	282.43022233
33	1321963	216.55813824	805.116173045
33	1323004	216.705054838	1666.305115091
33	1323788	216.81682983	386.032218244
33	1331058	217.727944842	78.631802201
33	1337974	218.509133991	422.4745665
33	1346303	219.535653152	191.797918155
33	1370369	222.901584723	41.406144522
33	1372361	223.155847903	150.633492103
33	1373536	223.315439568	26.84876382
33	1381474	224.428935869	1386.607292598
33	1389435	225.751625096	71.971763127
33	1389554	225.768167695	481.563554467
33	1390505	225.92339214	42.849645665
33	1393585	226.458235494	307.569821095
33	1394919	226.731476969	247.857922287
33	1396298	226.918989319	2060.185262969
33	1402259	227.755667275	1039.761400719
33	1403440	227.980251818	53.692511871
33	1404254	228.123365454	636.156058445
33	1404396	228.158841235	319.259987004
33	1414463	229.730794889	30.37664616
33	1417277	230.245435715	1567.774560593
33	1431266	232.743792838	706.696400319
33	1437902	233.938064828	50.313990628
33	1442880	234.677047648	279.514154406
33	1443570	234.796046916	473.942482805
33	1443624	234.804598938	611.927846028
33	1445939	235.270937724	331.547466971
33	1450711	235.981563689	635.384194223
33	1451908	236.164440588	18.746085691
33	1453196	236.390404296	13.439319733
33	1455387	236.8277769	1622.006802347
33	1455662	236.872889854	13.605941439
33	1458182	237.312555119	389.365333635
33	1460048	237.654575745	1015.629514175
33	1460991	237.810138217	779.644297603
33	1466110	238.607258149	371.109509058
33	1468792	239.155983207	288.417614501
33	1469056	239.208466464	305.303804015
33	1469097	239.215340341	709.154312584
33	1469259	239.252584643	848.189206344
33	1470646	239.459633772	431.390359676
33	1476245	240.397539114	921.165505966
33	1482051	241.112908844	790.717353426
33	1485259	241.647065957	651.9475165
33	1491515	242.59418947	788.306462949
33	1492608	242.782122326	1264.827154924
33	1494067	243.004537013	0.229783718
33	1496447	243.364504274	392.807875239
33	1501540	244.067565525	175.222194025
33	1512567	245.47991186	130.433270433
33	1517559	246.238895686	81.744050862
33	1520263	246.644419539	2530.94061702
33	1534238	248.450846261	288.883903759
33	1540487	249.253078302	607.017015228
33	1541583	249.399437017	587.418316975
33	1544507	249.817520536	676.036515125
33	1548461	250.383413242	1163.161371707
33	1557091	251.325165861	36.46016295
33	1567278	252.436802247	1294.479561
33	1593252	256.173383959	1170.328732238
33	1594061	256.25943735	617.653883163
33	1596226	256.500357218	698.590900579
33	1596433	256.521122786	451.83138948
33	1602455	257.351023759	38.720109062
33	1602934	257.415637063	998.295329619
33	1604417	257.626212381	1013.218520219
33	1606757	257.916524542	139.901627361
33	1607981	258.066314943	207.125562813
33	1608400	258.115686415	345.360976842
33	1613412	258.903978068	50.088790887
33	1617389	259.488349065	547.587680342
33	1621045	259.940644235	432.187778722
33	1622244	260.075035462	222.603880707
33	1622259	260.075153302	643.302545775
33	1630582	261.070151584	489.451084412
33	1640854	262.427350939	568.905726415
33	1653749	264.1120298	419.966337435
33	1657125	264.583701303	14.31825484
33	1658653	264.854764953	635.280505165
33	1662151	265.358451934	729.822426788
33	1664947	265.683966046	659.668756038
33	1676474	266.902235184	162.736952522
33	1678852	267.171194554	530.514918426
33	1686114	268.059235241	619.159126348
33	1688747	268.365264016	87.572276826
33	1703142	270.097541375	1193.686319156
33	1705402	270.415810789	1068.361373078
33	1707638	270.733637333	119.237733377
33	1712468	271.427225608	461.698989646
33	1713489	271.611755632	6.812312367
33	1717320	272.110032082	279.843513372
33	1724239	272.908102562	268.961249165
33	1725681	273.07404278	572.868510012
33	1726794	273.227794986	153.527427319
33	1727366	273.305389831	3.809244561
33	1733773	274.150513184	139.389641233
33	1736537	274.490908696	605.345443238
33	1736682	274.506772222	2201.633979008
33	1739918	275.017840167	70.289612958
33	1747835	275.831820679	146.374017853
33	1749220	276.018897324	215.648332261
33	1749886	276.100201681	159.093801988
33	1756376	276.957340111	612.481063066
33	1760375	277.551004933	249.803867077
33	1761541	277.738544826	222.080873449
33	1764644	278.121897927	417.562745123
33	1780615	280.113287328	1339.291852215
33	1782026	280.29917359	347.069871626
33	1783236	280.445470535	88.632101648
33	1785172	280.711649937	918.016653884
33	1785303	280.725764085	2613.424474221
33	1796300	282.13616598	316.941235511
33	1800411	282.710135708	1578.889462509
33	1806663	283.499696476	92.468381427
33	1813430	284.257623092	1605.151203596
33	1813479	284.262656646	551.508032721
33	1821730	285.518468947	218.034766367
33	1824050	285.812290932	26.680336279
33	1824810	285.910459222	149.857145844
33	1828168	286.284039312	28.532819436
33	1829472	286.497254769	283.800825654
33	1842127	288.119772634	216.255697716
33	1845651	288.541642532	753.777306331
33	1849785	289.019936075	381.899820792
33	1853061	289.390341796	233.962721844
33	1854988	289.597225678	275.607165663
33	1855050	289.603597824	35.338501367
33	1856740	289.79055437	1559.397609058
33	1856901	289.808173619	240.360998672
33	1857689	289.89865849	416.890859164
33	1862940	290.453064004	273.959066265
33	1869549	291.379156856	922.385609268
33	1874879	292.07828522	499.88566136
33	1878247	292.539930795	90.110928503
33	1894264	294.443399676	73.432301369
33	1900300	295.350850051	66.686592016
33	1906347	296.186084055	307.687581818
33	1906749	296.251107438	1040.006094858
33	1911543	296.977676571	289.281022328
33	1915538	297.544386076	152.578426072
33	1916140	297.615529168	389.318137277
33	1917944	297.834310466	1775.239265559
33	1936393	300.195567621	33.190882103
33	1940608	300.695567753	798.154640945
33	1955986	302.718651064	2886.193687519
33	1960550	303.312424387	1118.784911964
33	1963526	303.738885226	1641.934384387
33	1964177	303.796601624	136.847059086
33	1964699	303.846753066	279.702234011
33	1967408	304.154671582	439.603208164
33	1968936	304.400553954	1539.461297156
33	1970343	304.625484303	126.001020631
33	1973583	305.165523022	349.059959726
33	1981613	306.402201146	1011.484582389
33	1992921	307.716896816	204.491406823
33	1998905	308.392921742	10.324553495
33	2001589	308.689627422	437.901030582
33	2005063	309.114258555	273.200654538
33	2016930	310.447631031	334.86095042
33	2018520	310.654282429	76.083539358
33	2023783	311.215345367	322.105542517
33	2029666	311.905531487	736.554525164
33	2044877	314.12500926	684.511084203
33	2045160	314.175954248	453.067287249
33	2053029	315.360325317	976.608147536
33	2056167	315.76719061	16.699359523
33	2056818	315.856469057	488.820985311
33	2058873	316.108281328	96.109725926
33	2061764	316.53432426	2283.374861556
33	2066753	317.203605749	1024.712209819
33	2067195	317.264797195	277.866985164
33	2071642	317.820655537	779.393060191
33	2084694	319.662072127	16.520324794
33	2087787	320.14878931	117.685759072
33	2097206	321.338920447	594.209643549
33	2098221	321.493773187	1511.619380259
33	2105109	322.545298023	53.738239491
33	2112467	323.635062733	842.531933757
33	2113433	323.766892115	22.571297353
33	2116374	324.220631356	557.372678215
33	2121773	324.933463984	1104.825800373
33	2122627	325.043099138	519.314714266
33	2123006	325.1139937	284.745850886
33	2123742	325.226642339	44.378771465
33	2130028	326.054146252	373.398739498
33	2130780	326.136463408	359.305517298
33	2133694	326.438511414	721.234737258
33	2133949	326.467208358	129.78786666
33	2140171	327.190410144	73.467545862
33	2143898	327.640342531	71.051545998
33	2147237	327.924263832	973.475321967
33	2155352	329.056983965	1068.500014391
33	2155417	329.061554158	560.030675325
33	2157160	329.305874506	260.463923206
33	2160778	329.783994299	540.643958832
33	2166421	330.450451608	211.203070522
33	2168732	330.64330589	376.96177163
33	2174701	331.42931429	179.404224646
33	2180330	332.134360591	571.986299874
33	2182785	332.438606638	1888.646102543
33	2194902	334.005141502	206.54766799
33	2197898	334.482890446	452.420960708
33	2207062	335.758028763	288.077924697
33	2207740	335.830351431	1647.422819775
33	2207911	335.848056891	229.665754342
33	2208345	335.911868834	77.331937747
33	2218360	337.106372993	554.332264262
33	2224693	337.902935199	0.279448287
33	2226443	338.108951375	1051.13425312
33	2243776	340.118149837	164.972868632
33	2248739	340.917679502	254.148552588
33	2249513	341.063682307	709.27587539
33	2250282	341.181281086	177.84770639
33	2254502	341.847486627	160.703836015
33	2264438	343.241662137	30.745808892
33	2264565	343.256855048	754.634562245
33	2268845	343.934248722	819.526482612
33	2269874	344.116208959	898.638590287
33	2270291	344.197807312	523.981073548
33	2279162	345.759739889	68.344026543
33	2281483	346.117858247	26.746893171
33	2282458	346.276248917	228.939064333
33	2288227	347.135913534	940.289638001
33	2288377	347.159626986	733.777638062
33	2291530	347.591215714	181.691492586
33	2292937	347.804020765	722.384496013
33	2293654	347.910583161	823.298450619
33	2310071	350.699131716	1008.342803199
33	2310699	350.827235452	305.762945729
33	2311518	350.955413791	149.311860782
33	2312136	351.074192319	114.952846464
33	2317240	351.939104818	148.642601178
33	2322317	352.898896686	131.095609864
33	2322460	352.916479522	56.195942121
33	2328068	353.773685525	961.268625697
33	2328730	353.884063667	298.689525288
33	2335902	355.401874708	1479.164556763
33	2336725	355.501025683	44.984318016
33	2342970	356.426208791	375.035718796
33	2347663	357.141765064	440.746994586
33	2355657	358.543581627	182.88556897
33	2357216	358.857939999	975.252150834
33	2358480	359.110300445	507.744353267
33	2361385	359.67436025	666.80246637
33	2361430	359.680750234	1606.557441302
33	2369833	360.988698219	254.814582813
33	2374153	361.639436794	583.268760854
33	2376066	361.944772823	567.50692955
33	2378447	362.301691926	871.224288595
33	2380665	362.693027889	36.095756301
33	2383892	363.229344433	313.484975029
33	2395043	364.71019097	595.644472551
33	2399819	365.429251165	84.298613281
33	2405302	366.197897757	251.066758897
33	2408802	366.68792642	32.733249887
33	2411064	366.949399583	284.492143494
33	2420481	368.156799032	140.379052288
33	2421465	368.312190366	136.835300003
33	2421914	368.379518194	21.963729084
33	2423666	368.600098845	412.218303959
33	2424375	368.691339054	606.158898708
33	2424950	368.755957956	691.649939482
33	2431545	369.541075213	475.450548516
33	2433053	369.710924989	615.437016327
33	2436122	370.132126715	1468.330084679
33	2436194	370.139273535	912.093938525
33	2436719	370.205835116	503.560074387
33	2443608	371.176479135	110.052648033
33	2444930	371.325245019	311.408923487
33	2449477	371.948214001	189.435266176
33	2456257	372.748895946	18.312346964
33	2467555	374.126669765	18.787132558
33	2475912	375.380278475	1141.353271879
33	2478472	375.710289082	1872.461003272
33	2485160	376.65388737	535.084571837
33	2486751	376.84715031	292.672544
33	2486966	376.87441458	178.922778858
33	2496804	377.929439514	347.216395609
33	2500263	378.428001937	946.993244703
33	2502092	378.683911309	500.738355365
33	2504504	379.089971096	94.270432475
33	2505315	379.174357718	1151.894131107
33	2506080	379.254051384	1400.720130738
33	2506118	379.256880872	227.718115433
33	2508159	379.533105991	608.370151087
33	2509929	379.768059036	977.807768947
33	2510520	379.838617009	608.708133444
33	2514381	380.338939352	1554.743065227
33	2517355	380.686347245	244.089037402
33	2520798	380.971978696	424.679442831
33	2532542	382.612862658	583.875049678
33	2533494	382.760719061	135.653373245
33	2538250	383.386423461	2792.394420195
33	2539455	383.530538356	1645.058030825
33	2544167	384.084032882	1.989561005
33	2546927	384.518315475	98.72883673
33	2547830	384.669034167	233.13998192
33	2550228	385.000685005	448.581747454
33	2550783	385.096402708	214.85211344
33	2550988	385.130278358	537.469725454
33	2552903	385.382207524	1535.999313351
33	2554099	385.518296553	716.810474847
33	2561352	386.228020533	224.269383865
33	2572227	387.477053647	127.884397779
33	2577010	388.029335482	146.762273005
33	2580515	388.429288588	1044.927682898
33	2594185	389.937325256	654.416841385
33	2594592	389.995887684	99.758528071
33	2599169	390.583117282	447.694574864
33	2599199	390.588398331	137.36869829
33	2602624	390.920691125	1366.45103142
33	2602807	390.939457208	918.510426707
33	2609243	391.706813525	275.79805139
33	2610297	391.861232609	186.793924368
33	2611997	392.092165625	1014.594309953
33	2614802	392.419370796	1134.684458715
33	2623124	393.348138514	210.089906896
33	2625595	393.659990541	1287.790917297
33	2632128	394.552673855	104.486604336
33	2634878	394.989080065	1064.850238177
33	2636901	395.308136035	67.458985612
33	2639345	395.581529972	387.00285083
33	2645199	396.210366387	1134.196990459
33	2652523	397.131509584	152.433403472
33	2661266	398.301374394	37.179979928
33	2661427	398.324761488	244.961068316
33	2667074	399.200520197	1072.191516963
33	2671354	399.836367073	206.001476601
33	2672529	400.023345255	1408.870807026
33	2687158	401.886069542	97.065235996
33	2698704	403.450413431	404.904199074
33	2716202	405.71370717	764.230848404
33	2723009	406.82072351	450.865496769
33	2726433	407.381660552	35.891290547
33	2727923	407.519871492	299.118571654
33	2729753	407.738891837	1008.507013766
33	2730608	407.87232833	740.708644174
33	2739801	408.802978615	960.950828398
33	2754716	410.586819656	48.109927966
33	2763110	411.691918487	164.83964952
33	2763703	411.767038181	197.246904369
33	2776390	413.299070169	350.587882173
33	2777831	413.511375629	2.094243826
33	2778943	413.671576662	1793.47927402
33	2781157	413.932460529	33.648126178
33	2782141	414.063121448	636.861127086
33	2788475	414.817277574	229.221285489
33	2791323	415.230707393	150.671625183
33	2798830	416.192087299	1582.886590757
33	2800108	416.387455441	323.655307934
33	2804467	417.004766276	404.520079275
33	2808386	417.564054404	423.691480559
33	2828665	420.613332158	950.567839774
33	2829839	420.783768745	84.258353618
33	2834461	421.453810107	689.38293381
33	2841277	422.231954346	2492.299449065
33	2849030	423.215050832	1262.32316193
33	2852050	423.608053005	1149.914024354
33	2856073	423.939673944	241.143083134
33	2863113	424.797021542	62.514302218
33	2863818	424.927040803	762.042079493
33	2872102	426.001023366	40.170435982
33	2881181	427.228861035	345.079259941
33	2886412	427.844084023	1466.647665623
33	2890841	428.445439497	645.334612427
33	2893277	428.773371228	469.729283439
33	2896633	429.214114069	485.743388455
33	2897979	429.374011125	1094.025698678
33	2898388	429.416777766	2144.332026363
33	2899875	429.565052826	694.032720657
33	2934905	433.986272673	419.474302829
33	2941396	434.824321795	142.30061095
33	2945637	435.441131921	1424.207371139
33	2945851	435.457592493	2048.17163242
33	2946534	435.537021647	178.879635289
33	2950104	436.039766208	1040.037938298
33	2953220	436.509955159	23.080478471
33	2955082	436.757771299	964.948537372
33	2963136	437.87448736	1052.767772283
33	2963609	437.926669227	639.415798966
33	2964492	438.017748699	47.275566928
33	2972013	439.088262902	1038.49225049
33	2973699	439.379902257	331.673420826
33	2976473	439.844074379	561.777528682
33	2981390	440.449126003	107.821880368
33	2989673	441.889089313	1814.122373784
33	3013603	445.500556468	127.679836276
33	3018843	446.210575394	932.756803591
33	3025039	447.049376609	163.82129198
33	3031009	447.870980689	151.732354401
33	3033957	448.306313955	0.745947179
33	3035378	448.49319804	145.519538202
33	3035862	448.560380195	387.885387288
33	3038973	448.985130835	438.209394122
33	3041234	449.303474842	851.825303668
33	3045401	449.790259227	1655.568356564
33	3046312	449.882621466	162.884659074
33	3053478	450.835682882	524.644140286
33	3056768	451.226429199	515.447446805
33	3065730	452.484088452	409.944350313
33	3080459	454.258911358	369.988055916
33	3084650	454.978653693	293.383791292
33	3085316	455.11014304	285.387916067
33	3102001	456.968997887	1334.561577729
33	3108339	457.780151873	112.211336511
33	3112247	458.255337714	694.104113206
33	3114275	458.545066391	466.339600891
33	3114338	458.553962152	290.517321216
33	3115409	458.744834442	1260.922166758
33	3115571	458.771373886	129.76505875
33	3118125	459.156798471	1949.016871647
33	3119262	459.320738053	854.786942205
33	3129486	460.512925852	83.224469582
33	3130159	460.616400494	1827.865125203
33	3132429	460.912873308	2228.966693421
33	3145215	462.650195725	283.90900029
33	3146223	462.827257787	3592.075629862
33	3146905	462.954634733	53.944460719
33	3151370	463.74390389	65.452631852
33	3151385	463.744889026	441.07518651
33	3152755	463.945628901	903.964505428
33	3158686	464.996723516	106.866889894
33	3169218	466.738435359	745.353118931
33	3174437	467.682145398	2354.535440904
33	3179090	468.626836803	1602.815036073
33	3183633	469.444855136	9.02422023
33	3185115	469.653497399	91.513047292
33	3192290	470.640909893	1849.783116666
33	3193604	470.754946204	428.597669325
33	3195418	471.022625133	1195.234703269
33	3203152	472.271554224	364.452142586
33	3209276	473.207434957	93.16900073
33	3211228	473.536070659	41.753284644
33	3224772	475.680135553	545.876645804
33	3226105	475.904457325	749.779476641
33	3239535	477.818666886	141.294051919
33	3243820	478.48514697	870.376376513
33	3244465	478.584695328	477.408617173
33	3248071	479.192766774	419.940833993
33	3255664	480.348043021	513.98400768
33	3256235	480.432160401	307.358016158
33	3267055	482.126295047	170.063954581
33	3271192	482.900607057	129.087934555
33	3277105	483.750445362	577.350029887
33	3279339	484.049733315	26.448817625
33	3280470	484.263907693	284.030870756
33	3280514	484.270380164	518.718478367
33	3284235	484.776895948	632.409462007
33	3288994	485.531801262	185.947076974
33	3290438	485.778818872	545.758854393
33	3291086	485.881578306	192.515773173
33	3304338	487.617753714	881.12947858
33	3310040	488.524033952	169.681354045
33	3311389	488.70363662	269.867447083
33	3325842	490.753069346	961.966326035
33	3331861	491.595803697	294.54079808
33	3344399	493.153261027	222.041731172
33	3346860	493.582016188	132.305390242
33	3348699	493.886360618	533.170381052
33	3349929	494.04292654	203.594730418
33	3350089	494.056917557	260.537794977
33	3351442	494.24535256	778.742471045
33	3355823	494.931307377	746.081430761
33	3361584	495.984824966	7.908683986
33	3365161	496.416555643	2163.518005693
33	3367786	496.807894446	167.080378556
33	3385140	499.434735437	12.361292343
33	3385963	499.576200809	512.234316876
33	3387253	499.761148016	300.988467483
33	3392431	500.576831484	563.744131401
33	3398127	501.355892993	176.584935205
33	3404853	502.3447464	264.232556837
33	3406449	502.632733469	1654.56910789
33	3412330	503.582050993	139.569723869
33	3419238	504.403663064	750.002227661
33	3425465	505.131852951	450.987948834
33	3430744	505.805771122	314.007203652
33	3431281	505.880601854	102.871287451
33	3440921	507.009736825	287.834205439
33	3443222	507.361728385	32.206393278
33	3445309	507.72731684	346.752852784
33	3445903	507.812496934	917.644527647
33	3446376	507.876243542	182.092984701
33	3446841	507.932943272	181.053433297
33	3458393	509.472398685	2130.437166081
33	3460864	509.679152142	950.499623559
33	3467059	510.525334964	24.549040708
33	3472430	511.280504837	1953.751679314
33	3472875	511.342692789	98.8909876
33	3484497	512.94287888	720.096396337
33	3496376	514.516387882	548.772780303
33	3500509	515.178583528	501.650420635
33	3504315	515.685464937	99.622737706
33	3512479	516.72030097	400.197763006
33	3516832	517.155191848	633.83012522
33	3522168	517.882214041	1041.664142484
33	3522979	517.999921734	635.145286173
33	3523071	518.010414804	25.902317769
33	3524234	518.152441399	253.11908815
33	3527618	518.559932554	125.128880762
33	3531328	519.120419696	1574.476593686
33	3543367	520.863026731	32.99206695
33	3545849	521.284894521	224.092297346
33	3548204	521.607490244	468.10587545
33	3549321	521.77331208	350.621559008
33	3551572	522.063624226	2808.733177195
33	3553762	522.427838437	329.385403767
33	3556175	522.817296709	178.242335603
33	3557051	522.975346677	181.048884872
33	3558306	523.142667666	683.721883925
33	3571431	525.028639392	682.043303944
33	3573015	525.275122049	1617.833077499
33	3576903	525.967616369	869.169851069
33	3578940	526.335602764	120.888333509
33	3579831	526.50163598	44.996068683
33	3590685	528.115344144	482.551431015
33	3590771	528.124269955	586.575916765
33	3602507	529.514679601	148.011508902
33	3603915	529.667153813	287.859372714
33	3610108	530.462646396	806.195938649
33	3610354	530.496159302	856.754755743
33	3613989	531.028041315	601.32269494
33	3626303	532.511972317	228.602052455
33	3630191	533.099235635	929.569564175
33	3635158	533.839754021	942.82683912
33	3638022	534.214360997	327.088680278
33	3638777	534.313675928	79.526062059
33	3641922	534.719661164	781.505619882
33	3643181	534.879412726	146.21986748
33	3643882	535.003249437	1891.706923705
33	3651862	536.008408035	238.865454159
33	3658068	536.747738295	442.451769098
33	3658137	536.758438034	445.068644486
33	3659191	536.894641743	157.215240576
33	3666681	538.200684728	35.000171245
33	3678298	540.026026489	53.22119175
33	3679045	540.126073511	734.111190039
33	3691227	541.720020672	1049.089689511
33	3702973	543.508566461	695.099502735
33	3711831	544.886289654	1716.720558073
33	3722697	546.258687273	332.571476425
33	3725693	546.742046012	202.957703318
33	3726511	546.854024115	1.086870403
33	3727717	547.016398379	263.867722265
33	3728144	547.056547594	582.348040323
33	3728495	547.102788292	127.624759669
33	3728630	547.120537629	855.333240186
33	3733214	547.684506154	1646.193704064
33	3734653	547.874273641	2947.929438501
33	3736914	548.194763731	477.004212634
33	3746131	549.353095478	50.310062035
33	3747628	549.536084626	101.444373189
33	3750297	549.899162722	328.27094169
33	3751575	550.111879304	1229.660443002
33	3754029	550.547934372	123.685054141
33	3762814	551.73232605	172.998732733
33	3771313	552.793511306	159.070887903
33	3779771	553.825164862	703.066612901
33	3781252	554.010500765	64.727710897
33	3781956	554.108508144	30.031581532
33	3786189	554.765928314	412.571588468
33	3788066	555.090733924	1784.036108378
33	3788740	555.202136265	131.201837784
33	3789906	555.398726095	1270.611385302
33	3805510	557.728212693	317.216801522
33	3809726	558.516269674	1790.822427086
33	3810833	558.70435681	1003.325907283
33	3815488	559.523492931	352.783700349
33	3817175	559.773806713	614.371434296
33	3825177	560.940058159	1496.028575904
33	3842626	563.449033148	62.336162119
33	3845329	563.9550058	29.584226926
33	3845413	563.964877154	1246.456373963
33	3849222	564.569997463	278.313030875
33	3855563	565.34360091	778.114927532
33	3858061	565.668439892	163.56201147
33	3863128	566.287720854	666.724094104
33	3867439	566.931712477	1589.126900959
33	3870579	567.281612794	715.209455366
33	3872194	567.501613033	201.629638556
33	3875086	567.821082595	2493.558365273
33	3881392	568.577917975	198.38510017
33	3881981	568.650115327	855.213274546
33	3888074	569.494213428	823.218768249
33	3889030	569.623371841	125.72580577
33	3891558	569.962335496	466.936826507
33	3893857	570.199862303	1344.415253801
33	3901622	571.055625993	223.219491906
33	3904201	571.463279088	291.206214658
33	3908644	572.170444565	548.438472819
33	3914743	572.968325413	695.497348506
33	3917701	573.387851499	371.594461844
33	3928405	574.887229316	307.806467488
33	3929730	575.107158763	628.038139338
33	3933308	575.599298641	321.493826221
33	3933657	575.643059408	577.587768664
33	3935074	575.829496522	65.794074113
33	3935148	575.836002567	1204.435100682
33	3935275	575.849569383	28.295567221
33	3938942	576.218289954	122.356899543
33	3945827	576.961155844	264.255356695
33	3953963	577.878838612	199.015158771
33	3958293	578.332633475	772.415023694
33	3966017	579.535991631	820.612712886
33	3969025	579.91214639	484.679421519
33	3976507	580.718204589	179.448064599
33	3979107	581.091158365	378.200611462
33	3985106	582.187246822	225.334472965
33	3986308	582.41186904	217.330598225
33	3991867	583.344606355	1162.262507003
33	3995971	584.000487777	800.198709654
33	3997620	584.361900721	980.953812662
33	4005644	585.754435246	449.332078287
33	4006125	585.831521845	586.759475592
33	4009414	586.370937839	425.637442237
33	4012179	586.816808333	23.203052836
33	4031224	589.915501071	283.682546508
33	4046435	592.446508045	178.398878838
33	4047209	592.579647027	184.759011865
33	4054157	593.889490166	74.415838094
33	4055178	594.087854084	245.455996028
33	4057017	594.409377888	191.261425994
33	4057050	594.414452356	1993.385075208
33	4060970	595.075331743	848.378166575
33	4064096	595.497439759	304.716890549
33	4075809	596.950749997	13.920087112
33	4076262	597.03682566	431.282774686
33	4086881	598.785486244	214.17687153
33	4087212	598.847611642	706.495241962
33	4088646	599.120644535	905.916718376
33	4098684	600.597145663	284.664614897
33	4100824	600.939821098	1719.386185043
33	4103215	601.346177901	381.533137479
33	4103257	601.350905685	390.839597813
33	4107665	602.05156913	1106.969161711
33	4110380	602.573210134	197.896981607
33	4115457	603.26852378	1249.588889397
33	4116353	603.435366846	245.719270942
33	4116370	603.43640106	1462.073908012
33	4117463	603.631865054	96.910897117
33	4123157	604.415947346	1543.556643288
33	4124334	604.590931113	174.202285787
33	4130532	605.384941195	55.138410291
33	4133442	605.787036759	275.172552178
33	4134514	605.949008169	804.500060542
33	4138271	606.510008469	122.433728036
33	4147200	607.911895872	24.373414125
33	4156089	609.396954976	1061.819560322
33	4158400	609.705908966	492.783839309
33	4164041	610.591294329	1118.881450723
33	4165622	610.861109648	385.581601309
33	4166243	610.961553839	52.763082221
33	4168721	611.239370794	84.011485936