version 2
run ChordDht-8-20211204-10:44:20-3224
attr Lifetime 900s
attr configname ChordDht
attr datetime 20211204-10:44:20
attr experiment ChordDht
attr inifile configs.ini
attr iterationvars $Lifetime=900s
attr iterationvars2 "$Lifetime=900s, $repetition=0"
attr measurement $Lifetime=900s
attr network oversim.underlay.simpleunderlay.SimpleUnderlayNetwork
attr processid 3224
attr repetition 0
attr replication #0
attr resultdir results
attr runnumber 8
attr seedset 8

vector 49  SimpleUnderlayNetwork.globalObserver.globalStatistics  "GlobalNodeList: Number of nodes"  ETV
vector 50  SimpleUnderlayNetwork.globalObserver.globalStatistics  "GlobalDhtTestMap: Number of stored DHT entries"  ETV
vector 51  SimpleUnderlayNetwork.globalObserver.globalStatistics  "LifetimeChurn: Time between deletes"  ETV
vector 52  SimpleUnderlayNetwork.globalObserver.globalStatistics  "LifetimeChurn: Session Time"  ETV
vector 53  SimpleUnderlayNetwork.globalObserver.globalStatistics  "LifetimeChurn: Time between creates"  ETV
49	1196326	200	1009
49	1565182	250	999
49	1970502	300	1012
49	2375617	350	1005
49	2774235	400	1014
49	3198799	450	1007
49	3589492	500	1000
49	4016865	550	1013
49	4444787	600	1027
49	4870675	650	1010
49	5282441	700	991
49	5662752	750	998
49	6068218	800	1000
49	6440870	850	993
49	6828059	900	976
49	7187051	950	963
49	7557064	1000	982
49	7934691	1050	983
49	8301259	1100	990
49	8696025	1150	1007
50	1196327	200	1479
50	1276741	210	1663
50	1362064	220	1835
50	1428325	230	1972
50	1491573	240	2113
50	1565183	250	2261
50	1644783	260	2433
50	1724546	270	2600
50	1806654	280	2789
50	1890942	290	2941
50	1970503	300	3082
50	2054927	310	3233
50	2135679	320	3394
50	2218634	330	3566
50	2303171	340	3727
50	2375618	350	3882
50	2440642	360	4039
50	2520075	370	4198
50	2603920	380	4354
50	2688369	390	4514
50	2774236	400	4677
50	2856812	410	4774
50	2943189	420	4810
50	3024090	430	4784
50	3112075	440	4776
50	3198800	450	4773
50	3286622	460	4761
50	3364689	470	4801
50	3428650	480	4817
50	3507207	490	4789
50	3589493	500	4789
50	3674190	510	4772
50	3756399	520	4775
50	3840133	530	4800
50	3930434	540	4802
50	4016866	550	4818
50	4113482	560	4796
50	4198670	570	4785
50	4289181	580	4790
50	4371257	590	4791
50	4444788	600	4808
50	4526555	610	4813
50	4613703	620	4814
50	4704559	630	4798
50	4786962	640	4811
50	4870676	650	4824
50	4952388	660	4805
50	5036325	670	4818
50	5115601	680	4826
50	5196128	690	4823
50	5282442	700	4818
50	5356796	710	4829
50	5423976	720	4818
50	5500009	730	4831
50	5578109	740	4835
50	5662753	750	4807
50	5747090	760	4803
50	5825588	770	4812
50	5905704	780	4842
50	5986871	790	4840
50	6068219	800	4821
50	6144741	810	4808
50	6224412	820	4800
50	6295510	830	4809
50	6367011	840	4821
50	6440871	850	4818
50	6517640	860	4814
50	6595033	870	4801
50	6670989	880	4763
50	6745757	890	4773
50	6828060	900	4786
50	6900997	910	4769
50	6977663	920	4768
50	7048783	930	4749
50	7121880	940	4732
50	7187052	950	4723
50	7256650	960	4756
50	7331792	970	4733
50	7405557	980	4721
50	7481518	990	4713
50	7557065	1000	4692
50	7634281	1010	4667
50	7711256	1020	4699
50	7787024	1030	4701
50	7861623	1040	4706
50	7934692	1050	4696
50	8009858	1060	4685
50	8082790	1070	4672
50	8149574	1080	4664
50	8225402	1090	4693
50	8301260	1100	4685
50	8378142	1110	4680
50	8457886	1120	4685
50	8540959	1130	4679
50	8621104	1140	4688
50	8696026	1150	4696
50	8771546	1160	4702
50	8852042	1170	4700
50	8931613	1180	4711
50	9001848	1190	4677
51	1205764	201.206776347	1.210209777
51	1207428	201.437122736	0.230346389
51	1228246	204.033680776	2.59655804
51	1228338	204.045782149	0.012101373
51	1236258	204.976347586	0.930565437
51	1239679	205.387180565	0.410832979
51	1245004	206.116378302	0.729197737
51	1249461	206.696611852	0.58023355
51	1262710	208.150366693	1.453754841
51	1265201	208.481802414	0.331435721
51	1268904	209.030537901	0.548735487
51	1281724	210.663089586	1.632551685
51	1285618	211.103814443	0.440724857
51	1298959	212.827039459	1.723225016
51	1303089	213.321161038	0.494121579
51	1314208	214.499581697	1.178420659
51	1316742	214.807074234	0.307492537
51	1321582	215.334577376	0.527503142
51	1328902	216.157771391	0.823194015
51	1332465	216.572072722	0.414301331
51	1341329	217.665609648	1.093536926
51	1351103	218.667457731	1.001848083
51	1351545	218.719121597	0.051663866
51	1358256	219.511296616	0.792175019
51	1360955	219.858277928	0.346981312
51	1364458	220.308965354	0.450687426
51	1369252	220.793077904	0.48411255
51	1376577	221.643603694	0.85052579
51	1377724	221.798880924	0.15527723
51	1381671	222.15609195	0.357211026
51	1388397	223.161736589	1.005644639
51	1390509	223.480520792	0.318784203
51	1397041	224.598495748	1.117974956
51	1400593	225.202438477	0.603942729
51	1408178	226.43671222	1.234273743
51	1415045	227.606696157	1.169983937
51	1418458	228.156989609	0.550293452
51	1419061	228.26528803	0.108298421
51	1422139	228.831098182	0.565810152
51	1425745	229.521194491	0.690096309
51	1428745	230.080773528	0.559579037
51	1434764	231.115932451	1.035158923
51	1439536	231.725635074	0.609702623
51	1440581	231.876425917	0.150790843
51	1442612	232.21879206	0.342366143
51	1459039	234.825150658	2.606358598
51	1472935	236.740812874	1.915662216
51	1481648	238.248639002	1.507826128
51	1491760	240.031885784	1.783246782
51	1503886	241.993314999	1.961429215
51	1506896	242.40326203	0.409947031
51	1507618	242.503472174	0.100210144
51	1514783	243.475024926	0.971552752
51	1527938	245.098777219	1.623752293
51	1528453	245.150787858	0.052010639
51	1530205	245.370314663	0.219526805
51	1536538	246.2445746	0.874259937
51	1544924	247.371099862	1.126525262
51	1561677	249.473012967	2.101913105
51	1577598	251.621879696	2.148866729
51	1578701	251.745538173	0.123658477
51	1583107	252.341626051	0.596087878
51	1624975	257.516396115	5.174770064
51	1637685	259.119076605	1.60268049
51	1649994	260.671992268	1.552915663
51	1654532	261.149136048	0.47714378
51	1658455	261.575148777	0.426012729
51	1661714	261.951693473	0.376544696
51	1665651	262.50539166	0.553698187
51	1677306	264.072903552	1.567511892
51	1678231	264.155461914	0.082558362
51	1693816	266.16393329	2.008471376
51	1693946	266.172267971	0.008334681
51	1747767	272.619781269	6.447513298
51	1752233	273.11021579	0.490434521
51	1756425	273.602066553	0.491850763
51	1757350	273.712477546	0.110410993
51	1775520	275.987164933	2.274687387
51	1791320	277.978468897	1.991303964
51	1791761	278.03597131	0.057502413
51	1808279	280.222564924	2.186593614
51	1809403	280.360106958	0.137542034
51	1809823	280.420327635	0.060220677
51	1833219	283.324494065	2.90416643
51	1838201	283.843352624	0.518858559
51	1849279	285.224662366	1.381309742
51	1876008	288.231087852	3.006425486
51	1878289	288.446317997	0.215230145
51	1887298	289.489961011	1.043643014
51	1888737	289.689775531	0.19981452
51	1893474	290.30057586	0.610800329
51	1898687	290.869709521	0.569133661
51	1927526	294.392793724	3.523084203
51	1936168	295.530138163	1.137344439
51	1938511	295.810427135	0.280288972
51	1938872	295.858626064	0.048198929
51	1940665	296.116377096	0.257751032
51	1945663	296.786841164	0.670464068
51	1950305	297.377892454	0.59105129
51	1954050	297.870984743	0.493092289
51	1955757	298.062834597	0.191849854
51	1963875	299.054062717	0.99122812
51	1965416	299.25405338	0.199990663
51	1972109	300.218387571	0.964334191
51	1972832	300.293669681	0.07528211
51	1983339	301.538238517	1.244568836
51	1984653	301.710679805	0.172441288
51	2018918	305.461886943	3.751207138
51	2040784	308.157810754	2.695923811
51	2040860	308.167734683	0.009923929
51	2046018	308.875443062	0.707708379
51	2055526	310.072796499	1.197353437
51	2062955	310.885984378	0.813187879
51	2071253	311.977939187	1.091954809
51	2077220	312.61131597	0.633376783
51	2094599	314.693230392	2.081914422
51	2115988	317.536044791	2.842814399
51	2118179	317.861970297	0.325925506
51	2127972	318.906389841	1.044419544
51	2130968	319.31064195	0.404252109
51	2143362	320.975831709	1.665189759
51	2146714	321.384702836	0.408871127
51	2146989	321.42489667	0.040193834
51	2159034	322.821626724	1.396730054
51	2163354	323.279919412	0.458292688
51	2164627	323.433485424	0.153566012
51	2169749	323.974869408	0.541383984
51	2180650	325.077211187	1.102341779
51	2190937	326.508547342	1.431336155
51	2193976	326.981813078	0.473265736
51	2195820	327.20718511	0.225372032
51	2196917	327.347407636	0.140222526
51	2222223	330.450033707	3.102626071
51	2226237	330.936749886	0.486716179
51	2229479	331.372505226	0.43575534
51	2234859	332.026662174	0.654156948
51	2241058	332.803746919	0.777084745
51	2241197	332.816579583	0.012832664
51	2242375	332.956648927	0.140069344
51	2250466	333.806702963	0.850054036
51	2251495	333.9200594	0.113356437
51	2268544	336.012460808	2.092401408
51	2273290	336.502919464	0.490458656
51	2275433	336.718522125	0.215602661
51	2286752	338.025642142	1.307120017
51	2314540	341.25989824	3.234256098
51	2318428	341.612165019	0.352266779
51	2320066	341.758409514	0.146244495
51	2324015	342.173769754	0.41536024
51	2333004	343.306625478	1.132855724
51	2336858	343.834250793	0.527625315
51	2352411	346.022429396	2.188178603
51	2356093	346.479712198	0.457282802
51	2360499	347.147893213	0.668181015
51	2374875	349.854493324	2.706600111
51	2388503	351.815019587	1.960526263
51	2405378	354.304260551	2.489240964
51	2406234	354.440011584	0.135751033
51	2406395	354.463341596	0.023330012
51	2408868	354.904337774	0.440996178
51	2416024	356.030102011	1.125764237
51	2419138	356.576442596	0.546340585
51	2420718	356.855006302	0.278563706
51	2423277	357.307050199	0.452043897
51	2423338	357.318888614	0.011838415
51	2425564	357.672919366	0.354030752
51	2454242	362.113429676	4.44051031
51	2456467	362.406011368	0.292581692
51	2459340	362.78210864	0.376097272
51	2463705	363.301442675	0.519334035
51	2471766	364.256609187	0.955166512
51	2481480	365.384718219	1.128109032
51	2481583	365.407211349	0.02249313
51	2486432	366.044125432	0.636914083
51	2491814	366.741708975	0.697583543
51	2498836	367.556518625	0.81480965
51	2505284	368.305360264	0.748841639
51	2508142	368.603441342	0.298081078
51	2522656	370.400096799	1.796655457
51	2535974	372.024753381	1.624656582
51	2542741	372.793516658	0.768763277
51	2546703	373.348660361	0.555143703
51	2553870	374.169254951	0.82059459
51	2565941	375.377256397	1.208001446
51	2568491	375.734097855	0.356841458
51	2570896	376.013505549	0.279407694
51	2574287	376.522401684	0.508896135
51	2578897	377.194765339	0.672363655
51	2584774	377.85610086	0.661335521
51	2604690	380.091102881	2.235002021
51	2606029	380.280601204	0.189498323
51	2629018	382.908758482	2.628157278
51	2645897	384.948972502	2.04021402
51	2648969	385.309017461	0.360044959
51	2650169	385.442020332	0.133002871
51	2656387	386.27662157	0.834601238
51	2656894	386.332315489	0.055693919
51	2665912	387.466199194	1.133883705
51	2680212	389.044696841	1.578497647
51	2686983	389.85155538	0.806858539
51	2690237	390.207301198	0.355745818
51	2708747	392.214764366	2.007463168
51	2716810	393.016852385	0.802088019
51	2725596	393.935591599	0.918739214
51	2732495	394.75814251	0.822550911
51	2764973	399.020497572	4.262355062
51	2765551	399.102891582	0.08239401
51	2773996	399.979033499	0.876141917
51	2783213	400.994314775	1.015281276
51	2791591	402.054338438	1.060023663
51	2805340	403.655971485	1.601633047
51	2809594	404.224908086	0.568936601
51	2813576	404.775805776	0.55089769
51	2838186	407.587036986	2.81123121
51	2841019	407.96654816	0.379511174
51	2849094	409.010037676	1.043489516
51	2859772	410.400722492	1.390684816
51	2861326	410.590664137	0.189941645
51	2863607	410.847085632	0.256421495
51	2863975	410.900287251	0.053201619
51	2868741	411.503778869	0.603491618
51	2870335	411.733172984	0.229394115
51	2882366	412.938288094	1.20511511
51	2888504	413.712432407	0.774144313
51	2896029	414.465983435	0.753551028
51	2897867	414.694595413	0.228611978
51	2902039	415.222600079	0.528004666
51	2911153	416.32250876	1.099908681
51	2911309	416.346437215	0.023928455
51	2919422	417.24722139	0.900784175
51	2921069	417.442611494	0.195390104
51	2928330	418.253823443	0.811211949
51	2931275	418.552542313	0.29871887
51	2950080	420.956290439	2.403748126
51	2958156	421.95143814	0.995147701
51	2958346	421.976082389	0.024644249
51	2968411	423.171476826	1.195394437
51	2976522	424.084234834	0.912758008
51	2990662	425.820557111	1.736322277
51	2994486	426.286340324	0.465783213
51	2996661	426.592449992	0.306109668
51	3001373	427.073228353	0.480778361
51	3027839	430.504508164	3.431279811
51	3040671	432.234345474	1.72983731
51	3047232	432.879971788	0.645626314
51	3049565	433.126459097	0.246487309
51	3052251	433.406235163	0.279776066
51	3053004	433.491803958	0.085568795
51	3058880	434.149395672	0.657591714
51	3075463	436.174698077	2.025302405
51	3092459	437.913465591	1.738767514
51	3100415	438.64222552	0.728759929
51	3108544	439.549056516	0.906830996
51	3120583	441.121471056	1.57241454
51	3120624	441.12596492	0.004493864
51	3129367	442.034205196	0.908240276
51	3139010	443.149593529	1.115388333
51	3150789	444.579097303	1.429503774
51	3154627	445.002310032	0.423212729
51	3158467	445.551903036	0.549593004
51	3159846	445.733343217	0.181440181
51	3163795	446.104504137	0.37116092
51	3171723	446.957985587	0.85348145
51	3191768	449.207421856	2.249436269
51	3201708	450.426420928	1.218999072
51	3205548	450.901296537	0.474875609
51	3208797	451.290737233	0.389440696
51	3217348	452.186994067	0.896256834
51	3224643	452.885836982	0.698842915
51	3225388	452.953288791	0.067451809
51	3227095	453.13056238	0.177273589
51	3229413	453.37975468	0.2491923
51	3237875	454.279278881	0.899524201
51	3259127	456.553688758	2.274409877
51	3264224	457.227528367	0.673839609
51	3267510	457.664089181	0.436560814
51	3268690	457.826643233	0.162554052
51	3306582	461.906388073	4.07974484
51	3322042	464.041084019	2.134695946
51	3324751	464.510272079	0.46918806
51	3325140	464.580284504	0.070012425
51	3332284	465.363923403	0.783638899
51	3335676	465.902874318	0.538950915
51	3340091	466.512329266	0.609454948
51	3341112	466.676013993	0.163684727
51	3344070	467.120435639	0.444421646
51	3349000	467.773801225	0.653365586
51	3350501	467.952419079	0.178617854
51	3353325	468.380840123	0.428421044
51	3354623	468.596667791	0.215827668
51	3354845	468.632822898	0.036155107
51	3357782	468.97785276	0.345029862
51	3358088	469.027006009	0.049153249
51	3358757	469.115152063	0.088146054
51	3360950	469.376749467	0.261597404
51	3362206	469.549141018	0.172391551
51	3362865	469.682152227	0.133011209
51	3364677	469.998027861	0.315875634
51	3368696	470.691080322	0.693052461
51	3372641	471.303061089	0.611980767
51	3378729	472.373976228	1.070915139
51	3387364	473.630406391	1.256430163
51	3394747	474.537297542	0.906891151
51	3396294	474.770723291	0.233425749
51	3399063	475.246146432	0.475423141
51	3410499	477.090354977	1.844208545
51	3413258	477.520569736	0.430214759
51	3417923	478.366258147	0.845688411
51	3423421	479.254154369	0.887896222
51	3430036	480.194354274	0.940199905
51	3432473	480.532369812	0.338015538
51	3434354	480.785143167	0.252773355
51	3436827	481.101689467	0.3165463
51	3440886	481.593413108	0.491723641
51	3453636	483.375604205	1.782191097
51	3456019	483.662521367	0.286917162
51	3489050	487.786779248	4.124257881
51	3494803	488.395661549	0.608882301
51	3502116	489.339147907	0.943486358
51	3512854	490.767676034	1.428528127
51	3514027	490.901053887	0.133377853
51	3516437	491.196061571	0.295007684
51	3522236	491.87530981	0.679248239
51	3523681	492.096898286	0.221588476
51	3525171	492.286226844	0.189328558
51	3528457	492.637076885	0.350850041
51	3532486	493.054333522	0.417256637
51	3547736	494.89572875	1.841395228
51	3553819	495.610492436	0.714763686
51	3555346	495.773448246	0.16295581
51	3568735	497.402715512	1.629267266
51	3584420	499.344994302	1.94227879
51	3593121	500.393718452	1.04872415
51	3598017	500.892052054	0.498333602
51	3634219	505.004181636	4.112129582
51	3679651	510.696537524	5.692355888
51	3688836	511.828388017	1.131850493
51	3692159	512.297575304	0.469187287
51	3699611	513.118435659	0.820860355
51	3701299	513.227815321	0.109379662
51	3702171	513.312660161	0.08484484
51	3716512	514.966798272	1.654138111
51	3728651	516.755213835	1.788415563
51	3729587	516.892871011	0.137657176
51	3740553	518.262592342	1.369721331
51	3763972	520.846362021	2.583769679
51	3765387	521.021915352	0.175553331
51	3767146	521.269049642	0.24713429
51	3812004	526.759194745	5.490145103
51	3812585	526.812213501	0.053018756
51	3817736	527.284604725	0.472391224
51	3820405	527.635923584	0.351318859
51	3840518	530.049053634	2.41313005
51	3843198	530.408814144	0.35976051
51	3843293	530.425577797	0.016763653
51	3851860	531.035292171	0.609714374
51	3856575	531.465864795	0.430572624
51	3875281	533.734936438	2.269071643
51	3893621	535.564108361	1.829171923
51	3895776	535.79579611	0.231687749
51	3903457	536.682580068	0.886783958
51	3911941	537.694947334	1.012367266
51	3941567	541.401704748	3.706757414
51	3954655	542.815342787	1.413638039
51	3958153	543.234002996	0.418660209
51	3962491	543.746640454	0.512637458
51	3971036	544.666891801	0.920251347
51	3972773	544.850027992	0.183136191
51	3974086	544.990952072	0.14092408
51	3976012	545.26354226	0.272590188
51	3990079	546.958170604	1.694628344
51	3996295	547.753677114	0.79550651
51	4007838	548.964547026	1.210869912
51	4029705	551.431550068	2.467003042
51	4034965	551.928207506	0.496657438
51	4037008	552.201716603	0.273509097
51	4053527	553.844064021	1.642347418
51	4057148	554.130475996	0.286411975
51	4066542	554.874318055	0.743842059
51	4074483	555.867102463	0.992784408
51	4107169	559.250987928	3.383885465
51	4107471	559.289445817	0.038457889
51	4110368	559.594676008	0.305230191
51	4113413	559.990278487	0.395602479
51	4129143	562.007848187	2.0175697
51	4135664	562.721040689	0.713192502
51	4173957	567.269688301	4.548647612
51	4178708	567.798764285	0.529075984
51	4185761	568.758451316	0.959687031
51	4198849	570.024246657	1.265795341
51	4202860	570.558391909	0.534145252
51	4212339	571.74449031	1.186098401
51	4236032	574.13098005	2.38648974
51	4239363	574.396296638	0.265316588
51	4243686	574.949497319	0.553200681
51	4244004	575.006791756	0.057294437
51	4264659	577.091197465	2.084405709
51	4266072	577.212718998	0.121521533
51	4281146	578.899181575	1.686462577
51	4288820	579.944079847	1.044898272
51	4300521	581.308405843	1.364325996
51	4307290	582.060478176	0.752072333
51	4307327	582.064953917	0.004475741
51	4313762	582.99856546	0.933611543
51	4320127	583.774119197	0.775553737
51	4329306	584.703707246	0.929588049
51	4332188	585.090073537	0.386366291
51	4341761	586.51294759	1.422874053
51	4344773	586.965611823	0.452664233
51	4346587	587.16033807	0.194726247
51	4347035	587.226643067	0.066304997
51	4376076	590.814809184	3.588166117
51	4392032	593.218334894	2.40352571
51	4395141	593.585096921	0.366762027
51	4399709	594.114548431	0.52945151
51	4404944	594.783768669	0.669220238
51	4405064	594.805139885	0.021371216
51	4411057	595.587884496	0.782744611
51	4411672	595.64816826	0.060283764
51	4415962	596.273941451	0.625773191
51	4424030	597.197785664	0.923844213
51	4425011	597.321070293	0.123284629
51	4425896	597.429835351	0.108765058
51	4428272	597.777012607	0.347177256
51	4429241	597.922645786	0.145633179
51	4445959	600.190401266	2.26775548
51	4462121	602.511385932	2.320984666
51	4463582	602.680363241	0.168977309
51	4464086	602.752330735	0.071967494
51	4473170	603.914695792	1.162365057
51	4474323	604.048997994	0.134302202
51	4486740	605.479329749	1.430331755
51	4494205	606.168722272	0.689392523
51	4504654	607.391656624	1.222934352
51	4507173	607.678958903	0.287302279
51	4508818	607.929604265	0.250645362
51	4513821	608.51523545	0.585631185
51	4525617	609.891581862	1.376346412
51	4532779	610.829539499	0.937957637
51	4534108	610.964417703	0.134878204
51	4537758	611.409715298	0.445297595
51	4538142	611.450257647	0.040542349
51	4544965	612.296959287	0.84670164
51	4547871	612.597520194	0.300560907
51	4552990	613.369943757	0.772423563
51	4557116	613.870134646	0.500190889
51	4558285	613.979526811	0.109392165
51	4561582	614.291644229	0.312117418
51	4586157	616.884013576	2.592369347
51	4591684	617.558518471	0.674504895
51	4605594	619.116447611	1.55792914
51	4620186	620.887272506	1.770824895
51	4622994	621.20595055	0.318678044
51	4631169	622.022340555	0.816390005
51	4632624	622.174907808	0.152567253
51	4638115	622.957070454	0.782162646
51	4641089	623.340684	0.383613546
51	4653396	624.63167374	1.29098974
51	4679736	627.596444196	2.964770456
51	4684218	628.132718456	0.53627426
51	4685789	628.298422435	0.165703979
51	4695976	629.207326803	0.908904368
51	4696468	629.244963675	0.037636872
51	4703969	629.922811763	0.677848088
51	4705352	630.096715541	0.173903778
51	4707688	630.392335251	0.29561971
51	4722637	632.399854881	2.00751963
51	4735779	633.895104592	1.495249711
51	4736746	634.015092899	0.119988307
51	4737840	634.166484365	0.151391466
51	4739845	634.401142063	0.234657698
51	4747900	635.439049212	1.037907149
51	4756128	636.443187868	1.004138656
51	4757684	636.627293525	0.184105657
51	4760672	636.920178393	0.292884868
51	4764744	637.357603862	0.437425469
51	4770610	638.035073297	0.677469435
51	4770676	638.041062103	0.005988806
51	4783537	639.601637632	1.560575529
51	4788412	640.165201833	0.563564201
51	4789390	640.281904918	0.116703085
51	4801011	641.638246547	1.356341629
51	4822809	644.410113884	2.771867337
51	4829107	645.269129842	0.859015958
51	4829294	645.296783493	0.027653651
51	4838870	646.596561509	1.299778016
51	4846305	647.439320053	0.842758544
51	4853873	648.41205862	0.972738567
51	4856529	648.747855729	0.335797109
51	4859879	649.148811249	0.40095552
51	4879837	651.228432532	2.079621283
51	4880896	651.346642976	0.118210444
51	4885123	651.871956757	0.525313781
51	4919634	656.068033639	4.196076882
51	4938555	658.237392861	2.169359222
51	4940081	658.445227108	0.207834247
51	4944599	659.012245829	0.567018721
51	4945155	659.08333629	0.071090461
51	4947278	659.371161042	0.287824752
51	4950560	659.787301023	0.416139981
51	4951406	659.874618926	0.087317903
51	4956326	660.434010198	0.559391272
51	4971138	662.081216627	1.647206429
51	4978619	663.030160638	0.948944011
51	4983333	663.579740516	0.549579878
51	4988273	664.039897106	0.46015659
51	5001693	665.592126729	1.552229623
51	5006157	666.158429854	0.566303125
51	5007223	666.300136122	0.141706268
51	5015321	667.315210436	1.015074314
51	5015787	667.365116866	0.04990643
51	5022332	668.146094472	0.780977606
51	5028743	668.966903899	0.820809427
51	5050396	671.846026983	2.879123084
51	5053057	672.285132362	0.439105379
51	5064396	673.751642908	1.466510546
51	5071127	674.41876508	0.667122172
51	5077876	675.22435167	0.80558659
51	5085560	676.242964698	1.018613028
51	5094905	677.429406327	1.186441629
51	5100142	678.066814927	0.6374086
51	5103267	678.400873437	0.33405851
51	5117183	680.275599084	1.874725647
51	5126720	681.489544586	1.213945502
51	5130731	681.993335437	0.503790851
51	5135334	682.489491198	0.496155761
51	5139470	683.076592673	0.587101475
51	5143121	683.518241667	0.441648994
51	5169096	686.891742861	3.373501194
51	5173754	687.493471046	0.601728185
51	5180385	688.277576572	0.784105526
51	5191555	689.477089393	1.199512821
51	5209686	691.864584777	2.387495384
51	5233177	694.28311596	2.418531183
51	5234996	694.400091459	0.116975499
51	5235280	694.419643355	0.019551896
51	5244681	695.478431151	1.058787796
51	5252769	696.533099483	1.054668332
51	5258650	697.339498817	0.806399334
51	5275975	699.278688371	1.939189554
51	5285773	700.410523253	1.131834882
51	5290924	700.983068143	0.57254489
51	5292659	701.142353373	0.15928523
51	5293722	701.261739788	0.119386415
51	5298343	701.841335618	0.57959583
51	5300899	702.119836622	0.278501004
51	5326810	705.304392612	3.18455599
51	5328124	705.529612569	0.225219957
51	5329516	705.742015943	0.212403374
51	5331668	706.096750364	0.354734421
51	5340909	707.466246804	1.36949644
51	5341354	707.531954851	0.065708047
51	5341355	707.532822824	0.000867973
51	5342171	707.645905462	0.113082638
51	5343608	707.899672592	0.25376713
51	5348040	708.586834125	0.687161533
51	5366510	711.694569729	3.107735604
51	5371234	712.55333707	0.858767341
51	5380623	714.102080489	1.548743419
51	5381920	714.285005349	0.18292486
51	5392939	715.76579816	1.480792811
51	5400170	716.89543239	1.12963423
51	5406299	717.858449543	0.963017153
51	5414818	718.826357718	0.967908175
51	5418635	719.326759061	0.500401343
51	5419802	719.501263434	0.174504373
51	5435487	721.7083187	2.207055266
51	5440565	722.603636119	0.895317419
51	5440850	722.660364366	0.056728247
51	5446039	723.33861756	0.678253194
51	5447495	723.48895159	0.15033403
51	5461975	725.185603569	1.696651979
51	5466776	725.799740414	0.614136845
51	5510441	731.509508807	5.709768393
51	5512250	731.731237421	0.221728614
51	5516110	732.350224802	0.618987381
51	5533096	734.524552765	2.174327963
51	5545473	735.895097482	1.370544717
51	5563951	738.552647381	2.657549899
51	5572606	739.308917377	0.756269996
51	5576332	739.767104168	0.458186791
51	5577358	739.901533749	0.134429581
51	5582716	740.62788365	0.726349901
51	5584410	740.858239396	0.230355746
51	5587642	741.249650442	0.391411046
51	5601978	743.030244925	1.780594483
51	5607839	743.610391154	0.580146229
51	5612405	744.183903812	0.573512658
51	5618331	744.770853698	0.586949886
51	5619604	744.934023831	0.163170133
51	5625799	745.799816213	0.865792382
51	5628693	746.140145171	0.340328958
51	5630412	746.369415376	0.229270205
51	5644825	748.079127063	1.709711687
51	5654011	749.212947331	1.133820268
51	5662180	749.944312224	0.731364893
51	5666916	750.561905308	0.617593084
51	5668819	750.811882265	0.249976957
51	5676812	751.885732555	1.07385029
51	5684016	752.869747781	0.984015226
51	5691486	753.78067033	0.910922549
51	5701403	754.688336341	0.907666011
51	5703072	754.895720532	0.207384191
51	5711354	755.871618188	0.975897656
51	5712203	756.007189064	0.135570876
51	5713869	756.260165177	0.252976113
51	5721116	757.068035065	0.807869888
51	5724042	757.366238401	0.298203336
51	5739999	759.186324084	1.820085683
51	5757556	761.550235269	2.363911185
51	5767446	763.154503109	1.60426784
51	5772762	763.861876305	0.707373196
51	5779750	764.617177831	0.755301526
51	5790814	766.124379702	1.507201871
51	5793474	766.443264575	0.318884873
51	5800496	767.350266973	0.907002398
51	5818634	769.326566457	1.976299484
51	5820700	769.537332237	0.21076578
51	5829390	770.494102539	0.956770302
51	5859851	774.477063375	3.982960836
51	5863476	775.020733158	0.543669783
51	5864638	775.179395401	0.158662243
51	5866751	775.481615985	0.302220584
51	5880681	777.167290483	1.685674498
51	5894885	778.715013293	1.54772281
51	5912685	780.872334482	2.157321189
51	5916539	781.429949316	0.557614834
51	5924113	782.428187407	0.998238091
51	5924691	782.497809427	0.06962202
51	5926288	782.66292317	0.165113743
51	5929160	783.002547741	0.339624571
51	5930504	783.191245998	0.188698257
51	5939786	784.346317116	1.155071118
51	5947626	785.307545882	0.961228766
51	5952902	785.934264332	0.62671845
51	5959340	786.850037408	0.915773076
51	5959648	786.886896669	0.036859261
51	5961247	787.077924795	0.191028126
51	5962009	787.179296552	0.101371757
51	5975110	788.625687384	1.446390832
51	5977016	788.917305452	0.291618068
51	5979658	789.250722606	0.333417154
51	5999036	791.337336961	2.086614355
51	6025716	794.452685917	3.115348956
51	6028878	794.810644062	0.357958145
51	6030711	795.11720566	0.306561598
51	6039917	796.481542926	1.364337266
51	6041182	796.659908642	0.178365716
51	6043446	797.01074674	0.350838098
51	6043953	797.086179545	0.075432805
51	6047348	797.544612298	0.458432753
51	6056133	798.569621782	1.025009484
51	6056588	798.633058169	0.063436387
51	6078043	801.209792123	2.576733954
51	6086804	802.301235182	1.091443059
51	6102556	804.193207742	1.89197256
51	6111149	805.257612031	1.064404289
51	6114470	805.768450489	0.510838458
51	6123085	806.963288704	1.194838215
51	6130547	808.029439476	1.066150772
51	6148637	810.473113071	2.443673595
51	6158129	811.736926346	1.263813275
51	6158859	811.833943488	0.097017142
51	6165787	812.687514963	0.853571475
51	6183735	814.85778562	2.170270657
51	6188449	815.36264939	0.50486377
51	6196479	816.350129992	0.987480602
51	6198166	816.595377046	0.245247054
51	6203681	817.31541974	0.720042694
51	6208840	817.997099881	0.681680141
51	6217014	819.065991046	1.068891165
51	6224191	819.973376967	0.907385921
51	6224592	820.025837407	0.05246044
51	6245956	822.576997784	2.551160377
51	6251041	823.321995487	0.744997703
51	6255038	823.817760432	0.495764945
51	6257555	824.199639131	0.381878699
51	6261064	824.651945347	0.452306216
51	6271526	826.271641795	1.619696448
51	6271853	826.320856252	0.049214457
51	6273257	826.634410766	0.313554514
51	6286499	828.60491728	1.970506514
51	6295692	830.028265135	1.423347855
51	6300478	830.8053645	0.777099365
51	6302871	831.113124673	0.307760173
51	6303526	831.211240084	0.098115411
51	6310283	832.272634285	1.061394201
51	6316133	832.978937846	0.706303561
51	6318300	833.311475021	0.332537175
51	6320002	833.512418195	0.200943174
51	6323584	834.012148988	0.499730793
51	6326309	834.197785368	0.18563638
51	6334154	835.203559309	1.005773941
51	6334296	835.222454371	0.018895062
51	6341312	836.214171973	0.991717602
51	6348392	837.293976094	1.079804121
51	6352057	837.796420301	0.502444207
51	6353966	838.08050724	0.284086939
51	6354390	838.140975157	0.060467917
51	6355831	838.362821923	0.221846766
51	6356391	838.463882374	0.101060451
51	6360148	838.989681707	0.525799333
51	6360462	839.021122644	0.031440937
51	6362883	839.361055033	0.339932389
51	6363303	839.431445461	0.070390428
51	6368338	840.154064542	0.722619081
51	6375693	841.314228444	1.160163902
51	6378745	841.786541767	0.472313323
51	6398115	844.411334222	2.624792455
51	6398818	844.495479715	0.084145493
51	6404066	845.266986589	0.771506874
51	6404233	845.284446357	0.017459768
51	6405377	845.388274976	0.103828619
51	6413001	846.340496545	0.952221569
51	6415490	846.71641979	0.375923245
51	6426485	848.286408194	1.569988404
51	6426749	848.322290169	0.035881975
51	6429236	848.624603258	0.302313089
51	6430452	848.790669283	0.166066025
51	6440521	849.953737269	1.163067986
51	6440875	850.000538568	0.046801299
51	6445474	850.468009983	0.467471415