version 2
run ChordDht-10-20211204-11:58:06-3224
attr Lifetime 5000s
attr configname ChordDht
attr datetime 20211204-11:58:06
attr experiment ChordDht
attr inifile configs.ini
attr iterationvars $Lifetime=5000s
attr iterationvars2 "$Lifetime=5000s, $repetition=0"
attr measurement $Lifetime=5000s
attr network oversim.underlay.simpleunderlay.SimpleUnderlayNetwork
attr processid 3224
attr repetition 0
attr replication #0
attr resultdir results
attr runnumber 10
attr seedset 10

vector 61  SimpleUnderlayNetwork.globalObserver.globalStatistics  "GlobalNodeList: Number of nodes"  ETV
vector 62  SimpleUnderlayNetwork.globalObserver.globalStatistics  "GlobalDhtTestMap: Number of stored DHT entries"  ETV
vector 63  SimpleUnderlayNetwork.globalObserver.globalStatistics  "LifetimeChurn: Session Time"  ETV
vector 64  SimpleUnderlayNetwork.globalObserver.globalStatistics  "LifetimeChurn: Time between creates"  ETV
vector 65  SimpleUnderlayNetwork.globalObserver.globalStatistics  "LifetimeChurn: Time between deletes"  ETV
61	1247236	200	1005
61	1643061	250	1008
61	2099676	300	1005
61	2527834	350	997
61	2946559	400	993
61	3386007	450	988
61	3785850	500	988
61	4244389	550	993
61	4648818	600	995
61	5108436	650	999
61	5571543	700	1003
61	5992705	750	1000
61	6457524	800	1006
61	6881469	850	1009
61	7340872	900	1009
61	7793236	950	1011
61	8221527	1000	1010
61	8686849	1050	1011
61	9106960	1100	1011
61	9574726	1150	1011
62	1247237	200	1566
62	1334965	210	1751
62	1425413	220	1934
62	1492298	230	2071
62	1555074	240	2213
62	1643062	250	2387
62	1730223	260	2556
62	1824337	270	2761
62	1917227	280	2933
62	2009035	290	3065
62	2099677	300	3225
62	2190818	310	3392
62	2278519	320	3542
62	2368014	330	3732
62	2460527	340	3912
62	2527835	350	4073
62	2589760	360	4226
62	2676754	370	4386
62	2761480	380	4539
62	2851363	390	4722
62	2946560	400	4906
62	3035779	410	4947
62	3123986	420	4993
62	3212101	430	4991
62	3300801	440	4978
62	3386008	450	4960
62	3477358	460	4922
62	3546239	470	4954
62	3611983	480	4976
62	3699119	490	4969
62	3785851	500	4946
62	3877050	510	4948
62	3968799	520	4914
62	4063874	530	4937
62	4153306	540	4957
62	4244390	550	4958
62	4334053	560	4956
62	4425484	570	4919
62	4515304	580	4889
62	4584131	590	4924
62	4648819	600	4926
62	4739207	610	4938
62	4828118	620	4947
62	4922952	630	4932
62	5014252	640	4901
62	5108437	650	4903
62	5199780	660	4923
62	5292267	670	4920
62	5382393	680	4935
62	5476688	690	4927
62	5571544	700	4897
62	5645404	710	4922
62	5712302	720	4928
62	5806428	730	4935
62	5894148	740	4928
62	5992706	750	4927
62	6083702	760	4928
62	6177992	770	4937
62	6267360	780	4933
62	6362611	790	4945
62	6457525	800	4953
62	6556405	810	4939
62	6646721	820	4946
62	6721385	830	4961
62	6788528	840	4970
62	6881470	850	4961
62	6969453	860	4948
62	7065121	870	4947
62	7154911	880	4972
62	7249415	890	4988
62	7340873	900	4982
62	7434072	910	4971
62	7528702	920	4986
62	7622873	930	4971
62	7716805	940	5001
62	7793237	950	5004
62	7858941	960	4981
62	7952176	970	5010
62	8037963	980	5011
62	8130928	990	4990
62	8221528	1000	4997
62	8314729	1010	5004
62	8403045	1020	5019
62	8500833	1030	5006
62	8591994	1040	5000
62	8686850	1050	5003
62	8783035	1060	5002
62	8859058	1070	5017
62	8929400	1080	5023
62	9020873	1090	5022
62	9106961	1100	5020
62	9200665	1110	5019
62	9295577	1120	5021
62	9391099	1130	5015
62	9480839	1140	5012
62	9574727	1150	5034
62	9667368	1160	5030
62	9761157	1170	5023
62	9859342	1180	5033
62	9919841	1190	4972
63	1309937	207.396567811	5056.693115926
63	1319706	208.490175785	3411.222516948
63	1381995	215.369530314	1080.633191744
63	1438672	221.495064332	1696.75604955
63	1461586	225.028962921	1369.776827628
63	1480643	227.942778261	997.871269938
63	1493443	230.180828495	10224.908588246
63	1535464	236.941624763	2117.375348046
63	1564187	241.276710358	5119.217637277
63	1584866	243.872847825	5121.49755799
63	1599190	245.34799584	3077.437375192
63	1616121	247.161895142	3076.396567694
63	1626904	248.352074177	1379.030016287
63	1738854	261.067662262	1489.817007502
63	1806008	268.008218079	2238.373412368
63	1845613	272.467803245	7342.129260104
63	1884659	276.786397717	3420.877165298
63	1893135	277.690637699	2718.428766411
63	1916058	279.866777708	8021.589596628
63	2008410	289.931797462	2666.455588468
63	2040813	293.557055953	4122.631508758
63	2047363	294.220701053	2843.799267738
63	2133146	303.878077185	11151.665667927
63	2133718	303.937682208	328.850514842
63	2199503	311.16398748	7155.723980655
63	2348249	328.080226629	6256.713111276
63	2414001	335.061882973	2713.301607105
63	2419160	335.742959942	2707.855451989
63	2484190	343.023311981	1347.011919687
63	2562576	355.770860731	2902.436457625
63	2577194	358.064195629	1184.449428253
63	2616241	363.400792635	7226.702712522
63	2695843	372.191015009	4130.710937258
63	2791892	383.284943107	8382.231376122
63	2826342	387.152766412	20.865492903
63	2862417	391.351308662	1179.581736875
63	2928825	398.436674219	6991.537386038
63	2953752	400.886622796	632.233602621
63	3019247	408.161295353	102.801206791
63	3097750	416.994940933	7175.433999072
63	3100621	417.34468947	2365.855554416
63	3215338	430.452886063	4338.735768688
63	3215426	430.460258676	2746.704740684
63	3266824	436.199891567	6608.635409848
63	3289200	438.70677228	12975.184321271
63	3391149	450.661599681	1052.047143985
63	3403635	452.230350614	7222.46326077
63	3408138	452.736984752	3055.726844963
63	3429790	454.96427192	4608.809550152
63	3521279	466.255858248	3820.356459159
63	3522168	466.39985387	781.684326633
63	3557984	471.941501748	1718.427341933
63	3559577	472.231852746	11684.829877235
63	3659718	485.90816203	7749.671440718
63	3663568	486.386758023	21.164296711
63	3747438	495.647096246	2734.968194262
63	3755661	496.719530382	6694.038200582
63	3762200	497.461273197	7837.378254002
63	3858112	507.914755876	1867.088324327
63	3908948	513.465141641	3862.548744293
63	3909561	513.531995622	8537.183046526
63	3933392	516.222532086	1104.234029999
63	3967846	519.893884771	638.823239742
63	4005147	523.760869116	9075.614965721
63	4021516	525.756383533	12737.720935415
63	4030617	526.869493781	591.126266442
63	4031189	526.931683761	4821.684788399
63	4062314	529.840701946	3039.723392959
63	4138767	538.436391407	462.263873132
63	4171512	542.022502253	10177.074612505
63	4172143	542.087954866	9198.994781532
63	4189942	544.000139116	4413.324703347
63	4227783	548.352345277	1195.899089329
63	4242612	549.796833311	2121.261523134
63	4280645	553.971817505	8948.559767706
63	4331296	559.682499401	602.410424745
63	4366487	563.775946996	1129.556821202
63	4461536	574.077937126	4100.908525231
63	4468361	574.844785991	2458.857760425
63	4481159	576.203032688	1410.912363771
63	4564113	587.270942049	4315.366611914
63	4614019	594.538626734	5024.395728172
63	4629725	596.860374611	1123.802210992
63	4649935	600.173064846	1337.110167212
63	4669208	602.455706297	10003.705137047
63	4698609	605.672405116	5125.79627625
63	4769283	613.355781738	1872.254343292
63	4822934	619.424094156	123.680398084
63	4870016	624.471070061	5079.460238864
63	5007262	639.287257986	1207.348129259
63	5034841	642.200742509	469.912171512
63	5057694	644.559498988	73.743726041
63	5101501	649.271299566	2813.531720794
63	5104145	649.561027216	6605.100667699
63	5153572	654.901886143	4405.150055801
63	5175285	657.12363783	5712.029890219
63	5246192	665.267386935	1590.150163555
63	5252994	666.044165791	2602.368786524
63	5259842	666.769822948	178.611911579
63	5265926	667.26256695	5350.464346161
63	5281510	668.912102584	70.754138994
63	5309656	671.927650589	2314.223366387
63	5382298	679.987955446	5141.910369174
63	5431654	685.382540918	10321.029445148
63	5441704	686.455552749	5519.930278608
63	5492440	691.915478885	1202.834949166
63	5528868	695.829510071	4470.737269923
63	5553889	698.311566606	5159.230306891
63	5611107	705.52382585	4456.85407581
63	5617754	706.445931546	205.771682284
63	5632680	708.434450337	5384.799316879
63	5677313	715.014362941	3097.000659126
63	5716206	720.618951991	4.935774463
63	5756169	724.980365384	8936.998889593
63	5772306	726.604134191	1557.492618492
63	5828568	732.722956492	3435.778756058
63	5886790	739.208086576	475.885546608
63	5889282	739.483556253	672.22571158
63	5925583	743.029940291	17472.072670817
63	5950959	745.718478673	908.688697361
63	5982539	749.057347315	4746.687612479
63	6019866	753.104760831	5925.299657286
63	6044297	755.866574592	678.062644559
63	6060451	757.670243787	1640.909870431
63	6077646	759.344834542	4379.985563265
63	6102209	762.007064355	2872.44197422
63	6196161	771.887822707	18475.03578894
63	6257722	778.937370967	2209.466362947
63	6306671	784.27861731	304.358285591
63	6311068	784.757649899	10704.680191101
63	6323014	785.974474167	4570.413654781
63	6349890	788.68019091	1605.344098055
63	6389490	792.920063819	2828.0017196
63	6433487	797.527657237	1526.611577847
63	6443926	798.635943665	6259.454530021
63	6463438	800.54348856	20992.433242179
63	6493063	803.446288426	18293.499341454
63	6495759	803.735684461	490.602708738
63	6538336	808.135404012	674.812027184
63	6539346	808.289792574	4350.112919488
63	6676078	823.880023879	7418.689823934
63	6683908	824.920372212	1628.004469019
63	6700329	827.192988121	5574.463186176
63	6710975	828.654778294	588.189466256
63	6721709	830.034102994	527.81516867
63	6767921	837.198297566	7747.916265972
63	6784141	839.421237412	4021.489152622
63	6785236	839.551056757	6261.438620776
63	6836158	845.37305673	1277.351898505
63	6935102	856.259611413	286.895863061
63	6946934	857.625729896	2147.9194761
63	6953971	858.450573041	184.354201852
63	6972451	860.37200914	18847.030760184
63	6984568	861.464815754	4254.109460008
63	7051051	868.553027264	24436.800382574
63	7235128	888.602886841	8386.331380676
63	7268579	892.140549891	10224.839305971
63	7324174	898.352896924	6104.523623751
63	7377996	903.975340797	1043.958052206
63	7429396	909.485831666	8747.031189311
63	7432571	909.848202479	3524.82596998
63	7481633	914.817890388	462.439812083
63	7501706	917.043592348	4981.230016394
63	7509368	917.837145275	8917.886912989
63	7529734	920.111026047	3645.891512085
63	7655881	933.931243865	3148.550040002
63	7665255	934.848159595	1874.123583141
63	7697798	938.097950498	11314.014892818
63	7715788	939.894263845	19815.183094698
63	7719751	940.350934742	13219.051380792
63	7734685	941.880272384	309.644095153
63	7766818	946.606242064	3080.985063025
63	7832238	956.275353521	20884.338659149
63	7885527	963.150200847	2706.70219712
63	7886923	963.324790452	2485.917681393
63	7903580	965.103567728	3353.511913317
63	7920174	966.747135388	3821.418597484
63	7985865	973.838968219	511.672686136
63	8050031	981.362907481	968.179419025
63	8059529	982.33178925	2968.264116087
63	8117596	988.704227348	11770.148817796
63	8165311	993.963089879	4820.122459688
63	8190309	996.926360731	16584.567416979
63	8292630	1007.854188201	15060.810756816
63	8381307	1017.618416586	25249.920724779
63	8403446	1020.051716457	2197.033735156
63	8416203	1021.378510781	17219.291097234
63	8421799	1022.000464039	1079.474121008
63	8458983	1025.746696297	2202.426318931
63	8459326	1025.779761685	3178.105126549
63	8567379	1037.153273675	4156.865073025
63	8591549	1039.942060012	665.597553219
63	8636315	1044.839404088	265.939593217
63	8656632	1046.888369082	4398.675651295
63	8683460	1049.651177517	5781.863335098
63	8738942	1055.942126864	1650.673221387
63	8751028	1056.889171697	2817.78093332
63	8823253	1065.549823411	6912.005924324
63	8838553	1067.371832847	12463.766280823
63	8883250	1073.710666721	9141.964876558
63	8893048	1074.97634781	950.570202142
63	9022916	1090.220431338	6874.181659667
63	9184304	1108.325860031	5606.339276709
63	9206972	1110.746164901	5348.42284866
63	9222908	1112.606445647	6157.239756653
63	9227024	1112.989436599	995.083074983
63	9267508	1117.433469555	16526.089961735
63	9290479	1119.425032421	3792.354031439
63	9315707	1122.023321836	2647.712607791
63	9334198	1123.954159696	3127.144087676
63	9375174	1128.450811972	877.974233499
63	9533324	1145.839337759	44.285571831
63	9612645	1153.972863954	1836.364681189
63	9635857	1156.717454935	4619.731863466
63	9673742	1160.608316575	11179.836580805
63	9676216	1160.814083437	1129.379842255
63	9703855	1163.608343458	2881.703989927
63	9709002	1164.23008874	2990.372652643
63	9749268	1168.842749984	8053.629159027
63	9775089	1171.533516246	3903.023049969
63	9795267	1173.730338731	1593.832019417
63	9802189	1174.513327896	437.971055814
63	9860211	1180.092381732	270.149498336
63	9862048	1180.292469952	154.002990723
63	9870139	1181.324883638	771.716256446
63	9901505	1185.473821583	7865.985821084
63	9912104	1188.25466116	751.456422336
63	9923250	1191.296122737	62.995217322
63	9927572	1192.460906839	2531.102796265
63	9930993	1193.436673187	3059.905923937
63	9946109	1197.879711962	1310.384315584
64	1309937	207.396567811	8.021745367
64	1319706	208.490175785	1.093607974
64	1381995	215.369530314	6.879354529
64	1438672	221.495064332	6.125534018
64	1461586	225.028962921	3.533898589
64	1480643	227.942778261	2.91381534
64	1493443	230.180828495	2.238050234
64	1535464	236.941624763	6.760796268
64	1564187	241.276710358	4.335085595
64	1584866	243.872847825	2.596137467
64	1599190	245.34799584	1.475148015
64	1616121	247.161895142	1.813899302
64	1626904	248.352074177	1.190179035
64	1738854	261.067662262	12.715588085
64	1806008	268.008218079	6.940555817
64	1845613	272.467803245	4.459585166
64	1884659	276.786397717	4.318594472
64	1893135	277.690637699	0.904239982
64	1916058	279.866777708	2.176140009
64	2008410	289.931797462	10.065019754
64	2040813	293.557055953	3.625258491
64	2047363	294.220701053	0.6636451
64	2133146	303.878077185	9.657376132
64	2133718	303.937682208	0.059605023
64	2199503	311.16398748	7.226305272
64	2348249	328.080226629	16.916239149
64	2414001	335.061882973	6.981656344
64	2419160	335.742959942	0.681076969
64	2484190	343.023311981	7.280352039
64	2562576	355.770860731	12.74754875
64	2577194	358.064195629	2.293334898
64	2616241	363.400792635	5.336597006
64	2695843	372.191015009	8.790222374
64	2791892	383.284943107	11.093928098
64	2826342	387.152766412	3.867823305
64	2862417	391.351308662	4.19854225
64	2928825	398.436674219	7.085365557
64	2953752	400.886622796	2.449948577
64	3019247	408.161295353	7.274672557
64	3097750	416.994940933	8.83364558
64	3100621	417.34468947	0.349748537
64	3215338	430.452886063	13.108196593
64	3215426	430.460258676	0.007372613
64	3266824	436.199891567	5.739632891
64	3289200	438.70677228	2.506880713
64	3391149	450.661599681	11.954827401
64	3403635	452.230350614	1.568750933
64	3408138	452.736984752	0.506634138
64	3429790	454.96427192	2.227287168
64	3521279	466.255858248	11.291586328
64	3522168	466.39985387	0.143995622
64	3557984	471.941501748	5.541647878
64	3559577	472.231852746	0.290350998
64	3659718	485.90816203	13.676309284
64	3663568	486.386758023	0.478595993
64	3747438	495.647096246	9.260338223
64	3755661	496.719530382	1.072434136
64	3762200	497.461273197	0.741742815
64	3858112	507.914755876	10.453482679
64	3908948	513.465141641	5.550385765
64	3909561	513.531995622	0.066853981
64	3933392	516.222532086	2.690536464
64	3967846	519.893884771	3.671352685
64	4005147	523.760869116	3.866984345
64	4021516	525.756383533	1.995514417
64	4030617	526.869493781	1.113110248
64	4031189	526.931683761	0.06218998
64	4062314	529.840701946	2.909018185
64	4138767	538.436391407	8.595689461
64	4171512	542.022502253	3.586110846
64	4172143	542.087954866	0.065452613
64	4189942	544.000139116	1.91218425
64	4227783	548.352345277	4.352206161
64	4242612	549.796833311	1.444488034
64	4280645	553.971817505	4.174984194
64	4331296	559.682499401	5.710681896
64	4366487	563.775946996	4.093447595
64	4461536	574.077937126	10.30199013
64	4468361	574.844785991	0.766848865
64	4481159	576.203032688	1.358246697
64	4564113	587.270942049	11.067909361
64	4614019	594.538626734	7.267684685
64	4629725	596.860374611	2.321747877
64	4649935	600.173064846	3.312690235
64	4669208	602.455706297	2.282641451
64	4698609	605.672405116	3.216698819
64	4769283	613.355781738	7.683376622
64	4822934	619.424094156	6.068312418
64	4870016	624.471070061	5.046975905
64	5007262	639.287257986	14.816187925
64	5034841	642.200742509	2.913484523
64	5057694	644.559498988	2.358756479
64	5101501	649.271299566	4.711800578
64	5104145	649.561027216	0.28972765
64	5153572	654.901886143	5.340858927
64	5175285	657.12363783	2.221751687
64	5246192	665.267386935	8.143749105
64	5252994	666.044165791	0.776778856
64	5259842	666.769822948	0.725657157
64	5265926	667.26256695	0.492744002
64	5281510	668.912102584	1.649535634
64	5309656	671.927650589	3.015548005
64	5382298	679.987955446	8.060304857
64	5431654	685.382540918	5.394585472
64	5441704	686.455552749	1.073011831
64	5492440	691.915478885	5.459926136
64	5528868	695.829510071	3.914031186
64	5553889	698.311566606	2.482056535
64	5611107	705.52382585	7.212259244
64	5617754	706.445931546	0.922105696
64	5632680	708.434450337	1.988518791
64	5677313	715.014362941	6.579912604
64	5716206	720.618951991	5.60458905
64	5756169	724.980365384	4.361413393
64	5772306	726.604134191	1.623768807
64	5828568	732.722956492	6.118822301
64	5886790	739.208086576	6.485130084
64	5889282	739.483556253	0.275469677
64	5925583	743.029940291	3.546384038
64	5950959	745.718478673	2.688538382
64	5982539	749.057347315	3.338868642
64	6019866	753.104760831	4.047413516
64	6044297	755.866574592	2.761813761
64	6060451	757.670243787	1.803669195
64	6077646	759.344834542	1.674590755
64	6102209	762.007064355	2.662229813
64	6196161	771.887822707	9.880758352
64	6257722	778.937370967	7.04954826
64	6306671	784.27861731	5.341246343
64	6311068	784.757649899	0.479032589
64	6323014	785.974474167	1.216824268
64	6349890	788.68019091	2.705716743
64	6389490	792.920063819	4.239872909
64	6433487	797.527657237	4.607593418
64	6443926	798.635943665	1.108286428
64	6463438	800.54348856	1.907544895
64	6493063	803.446288426	2.902799866
64	6495759	803.735684461	0.289396035
64	6538336	808.135404012	4.399719551
64	6539346	808.289792574	0.154388562
64	6676078	823.880023879	15.590231305
64	6683908	824.920372212	1.040348333
64	6700329	827.192988121	2.272615909
64	6710975	828.654778294	1.461790173
64	6721709	830.034102994	1.3793247
64	6767921	837.198297566	7.164194572
64	6784141	839.421237412	2.222939846
64	6785236	839.551056757	0.129819345
64	6836158	845.37305673	5.821999973
64	6935102	856.259611413	10.886554683
64	6946934	857.625729896	1.366118483
64	6953971	858.450573041	0.824843145
64	6972451	860.37200914	1.921436099
64	6984568	861.464815754	1.092806614
64	7051051	868.553027264	7.08821151
64	7235128	888.602886841	20.049859577
64	7268579	892.140549891	3.53766305
64	7324174	898.352896924	6.212347033
64	7377996	903.975340797	5.622443873
64	7429396	909.485831666	5.510490869
64	7432571	909.848202479	0.362370813
64	7481633	914.817890388	4.969687909
64	7501706	917.043592348	2.22570196
64	7509368	917.837145275	0.793552927
64	7529734	920.111026047	2.273880772
64	7655881	933.931243865	13.820217818
64	7665255	934.848159595	0.91691573
64	7697798	938.097950498	3.249790903
64	7715788	939.894263845	1.796313347
64	7719751	940.350934742	0.456670897
64	7734685	941.880272384	1.529337642
64	7766818	946.606242064	4.72596968
64	7832238	956.275353521	9.669111457
64	7885527	963.150200847	6.874847326
64	7886923	963.324790452	0.174589605
64	7903580	965.103567728	1.778777276
64	7920174	966.747135388	1.64356766
64	7985865	973.838968219	7.091832831
64	8050031	981.362907481	7.523939262
64	8059529	982.33178925	0.968881769
64	8117596	988.704227348	6.372438098
64	8165311	993.963089879	5.258862531
64	8190309	996.926360731	2.963270852
64	8292630	1007.854188201	10.92782747
64	8381307	1017.618416586	9.764228385
64	8403446	1020.051716457	2.433299871
64	8416203	1021.378510781	1.326794324
64	8421799	1022.000464039	0.621953258
64	8458983	1025.746696297	3.746232258
64	8459326	1025.779761685	0.033065388
64	8567379	1037.153273675	11.37351199
64	8591549	1039.942060012	2.788786337
64	8636315	1044.839404088	4.897344076
64	8656632	1046.888369082	2.048964994
64	8683460	1049.651177517	2.762808435
64	8738942	1055.942126864	6.290949347
64	8751028	1056.889171697	0.947044833
64	8823253	1065.549823411	8.660651714
64	8838553	1067.371832847	1.822009436
64	8883250	1073.710666721	6.338833874
64	8893048	1074.97634781	1.265681089
64	9022916	1090.220431338	15.244083528
64	9184304	1108.325860031	18.105428693
64	9206972	1110.746164901	2.42030487
64	9222908	1112.606445647	1.860280746
64	9227024	1112.989436599	0.382990952
64	9267508	1117.433469555	4.444032956
64	9290479	1119.425032421	1.991562866
64	9315707	1122.023321836	2.598289415
64	9334198	1123.954159696	1.93083786
64	9375174	1128.450811972	4.496652276
64	9533324	1145.839337759	17.388525787
64	9612645	1153.972863954	8.133526195
64	9635857	1156.717454935	2.744590981
64	9673742	1160.608316575	3.89086164
64	9676216	1160.814083437	0.205766862
64	9703855	1163.608343458	2.794260021
64	9709002	1164.23008874	0.621745282
64	9749268	1168.842749984	4.612661244
64	9775089	1171.533516246	2.690766262
64	9795267	1173.730338731	2.196822485
64	9802189	1174.513327896	0.782989165
64	9860211	1180.092381732	5.579053836
64	9862048	1180.292469952	0.20008822
64	9870139	1181.324883638	1.032413686
64	9901505	1185.473821583	4.148937945
64	9912104	1188.25466116	2.780839577
64	9923250	1191.296122737	3.041461577
64	9927572	1192.460906839	1.164784102
64	9930993	1193.436673187	0.975766348
64	9946109	1197.879711962	4.443038775
65	1338878	210.433268736	19.601347915
65	1367748	213.679744845	3.246476109
65	1429549	220.465145274	6.785400429
65	1474229	227.035336557	6.570191283
65	1486014	228.890374229	1.855037672
65	1488970	229.379749519	0.48937529
65	1507343	232.407756048	3.028006529
65	1579372	243.217703775	10.809947727
65	1668230	252.802654419	9.584950644
65	1682250	254.274346236	1.471691817
65	1743349	261.476698667	7.202352431
65	1774446	264.711701472	3.235002805
65	1848941	272.843485556	8.131784084
65	1888420	277.226673612	4.383188056
65	1900587	278.407779322	1.18110571
65	1902514	278.565519908	0.157740586
65	1915838	279.840898468	1.27537856
65	1918588	280.1318734	0.290974932
65	1924108	280.836030311	0.704156911
65	2057535	295.280582463	14.444552152
65	2103631	300.555793023	5.27521056
65	2181161	308.927096516	8.371303493
65	2186027	309.415228523	0.488132007
65	2193654	310.396480943	0.98125242
65	2206204	311.916063327	1.519582384
65	2238253	315.465253625	3.549190298
65	2255989	317.332511815	1.86725819
65	2273162	319.432225449	2.099713634
65	2296403	322.006440321	2.574214872
65	2300809	322.541460284	0.535019963
65	2308658	323.497915057	0.956454773
65	2352898	328.563384914	5.065469857
65	2395687	333.009873865	4.446488951
65	2396606	333.101155852	0.091281987
65	2505818	346.328171268	13.227015416
65	2506716	346.465406422	0.137235154
65	2537589	351.715109791	5.249703369
65	2563230	355.885863453	4.170753662
65	2601004	361.524212455	5.638349002
65	2653223	367.579539812	6.055327357
65	2713689	374.123519743	6.543979931
65	2725150	375.510389859	1.386870116
65	2732300	376.414597428	0.904207569
65	2736439	376.996649971	0.582052543
65	2740326	377.510535459	0.513885488
65	2741179	377.614323122	0.103787663
65	2828565	387.388732445	9.774409323
65	2856829	390.631406652	3.242674207
65	2878112	393.018259315	2.386852663
65	2940754	399.511962537	6.493703222
65	2947379	400.091419839	0.579457302
65	2987113	404.492736103	4.401316264
65	3001980	406.437803257	1.945067154
65	3026791	409.010332919	2.572529662
65	3079726	415.146754459	6.13642154
65	3088917	416.07250957	0.925755111
65	3123880	419.986949206	3.914439636
65	3239521	432.985712147	12.998762941
65	3240230	433.059821847	0.0741097
65	3259255	435.14146914	2.081647293
65	3279227	437.564737635	2.423268495
65	3280839	437.754650958	0.189913323
65	3311839	441.271964378	3.51731342
65	3312282	441.325091741	0.053127363
65	3312804	441.397829216	0.072737475
65	3327467	443.223639879	1.825810663
65	3340963	444.826702246	1.603062367
65	3348517	445.723858169	0.897155923
65	3468925	459.018558723	13.294700554
65	3524195	466.719348421	7.700789698
65	3528104	467.359846138	0.640497717
65	3536255	468.598537596	1.238691458
65	3665067	486.539677563	17.941139967
65	3688003	488.883131801	2.343454238
65	3719967	492.551054734	3.667922933
65	3750088	495.962502144	3.41144741
65	3751262	496.138782994	0.17628085
65	3845141	506.545753757	10.406970763
65	3863619	508.622681948	2.076928191
65	3911319	513.722506997	5.099825049
65	3916933	514.391003961	0.668496964
65	3949330	518.071310615	3.680306654
65	3974802	520.641934918	2.570624303
65	4231447	548.709790277	28.067855359
65	4243351	549.882087782	1.172297505
65	4330964	559.649416689	9.767328907
65	4354667	562.292037077	2.642620388
65	4434715	571.051583422	8.759546345
65	4477640	575.812207374	4.760623952
65	4487037	576.885725361	1.073517987
65	4556967	586.136397321	9.25067196
65	4760225	612.360544024	26.224146703
65	4764496	612.828722217	0.468178193
65	4808123	617.78819705	4.959474833
65	4910236	628.567983581	10.779786531
65	4947422	632.89929338	4.331309799
65	4965359	634.850439035	1.951145655
65	5009047	639.451239385	4.60080035
65	5018378	640.482174283	1.030934898
65	5020049	640.668848571	0.186674288
65	5118255	650.953752296	10.284903725
65	5171928	656.791507527	5.837755231
65	5193307	659.166228956	2.374721429
65	5209606	661.22057001	2.054341054
65	5365652	678.081052181	16.860482171
65	5380769	679.802330898	1.721278717
65	5412171	683.322103061	3.519772163
65	5440444	686.354824607	3.032721546
65	5513159	694.100827906	7.746003299
65	5537343	696.616986369	2.516158463
65	5597327	703.303225029	6.68623866
65	5617995	706.478196263	3.174971234
65	5652723	711.104990031	4.626793768
65	5673252	714.399067247	3.294077216
65	5713591	720.198773174	5.799705927
65	5715645	720.539260052	0.340486878
65	5716213	720.618951991	0.079691939
65	5726273	721.767841883	1.148889892
65	5753187	724.666241578	2.898399695
65	5769463	726.340780888	1.67453931
65	5781393	727.492167535	1.151386647
65	5787146	728.10449224	0.612324705
65	5843713	734.347296297	6.242804057
65	5879445	738.383114714	4.035818417
65	5951446	745.777687429	7.394572715
65	6008836	751.932703824	6.155016395
65	6108718	762.658470113	10.725766289
65	6148372	767.14320331	4.484733197
65	6243385	777.207801918	10.064598608
65	6256806	778.839759425	1.631957507
65	6269174	780.23651323	1.396753805
65	6371727	791.063636365	10.827123135
65	6386662	792.601438253	1.537801888
65	6387494	792.694433988	0.092995735
65	6408040	794.515090376	1.820656388
65	6420670	796.122932036	1.60784166
65	6518916	806.032338326	9.90940629
65	6528328	806.998593394	0.966255068
65	6573970	812.084804798	5.086211404
65	6693190	826.25882928	14.174024482
65	6705507	827.921413307	1.662584027
65	6724275	830.381734527	2.46032122
65	6771243	837.73173066	7.349996133
65	6771718	837.819133506	0.087402846
65	6810730	842.468584317	4.649450811
65	6881766	850.031309332	7.562725015
65	6901787	852.292091379	2.260782047
65	6959070	858.935660331	6.643568952
65	6994947	862.399686061	3.46402573
65	7004064	863.3883417	0.988655639
65	7125412	876.845322664	13.456980964
65	7239870	889.078947227	12.233624563
65	7293355	894.697650094	5.618702867
65	7315362	897.21761383	2.519963736
65	7355250	901.520800283	4.303186453
65	7365335	902.649761842	1.128961559
65	7381119	904.305261814	1.655499972
65	7399667	906.314464273	2.009202459
65	7413894	907.781929432	1.467465159
65	7503021	917.182010227	9.400080795
65	7631415	930.973013401	13.791003174
65	7641852	932.185189195	1.212175794
65	7659477	934.293237747	2.108048552
65	7667279	935.080922591	0.787684844
65	7687123	937.063716345	1.982793754
65	7730872	941.521031904	4.457315559
65	7747523	943.561298391	2.040266487
65	7780623	948.282553122	4.721254731
65	7797216	950.635607857	2.353054735
65	7803600	951.710046929	1.074439072
65	7831762	956.208029114	4.497982185
65	7873594	961.796301034	5.58827192
65	7968199	971.91406525	10.117764216
65	8019627	977.84046684	5.92640159
65	8032890	979.388973622	1.548506782
65	8089713	985.700264539	6.311290917
65	8120222	989.02740325	3.327138711
65	8163548	993.768659215	4.741255965
65	8171262	994.620550396	0.851891181
65	8189908	996.876823087	2.256272691
65	8202009	998.180279584	1.303456497
65	8213753	999.262005853	1.081726269
65	8385197	1018.120225417	18.858219564
65	8475794	1027.265260044	9.145034627
65	8480525	1027.804774893	0.539514849
65	8537795	1033.872987012	6.068212119
65	8566292	1037.04269631	3.169709298
65	8690299	1050.401530511	13.358834201
65	8739466	1055.993714723	5.592184212
65	8810750	1063.665345799	7.671631076
65	8812226	1063.842600008	0.177254209
65	8848523	1068.648351818	4.80575181
65	8882648	1073.636902901	4.988551083
65	8984009	1086.388405649	12.751502748
65	9036418	1091.751266952	5.362861303
65	9070366	1095.670149263	3.918882311
65	9080785	1097.112914021	1.442764758
65	9124741	1101.812640173	4.699726152
65	9136265	1102.995760223	1.18312005
65	9242438	1114.604216313	11.60845609
65	9248103	1115.236816388	0.632600075
65	9372216	1128.155474474	12.918658086
65	9408626	1132.044444089	3.888969615
65	9514441	1143.717124513	11.672680424
65	9546461	1147.092924146	3.375799633
65	9576027	1150.139554129	3.046629983
65	9579540	1150.550832968	0.411278839
65	9666955	1159.964484733	9.413651765
65	9703155	1163.516156945	3.551672212
65	9721633	1165.475014516	1.958857571
65	9808913	1175.12490959	9.649895074
65	9863226	1180.447615626	5.322706036
65	9914048	1188.815821583	8.368205957
65	9914886	1189.011013642	0.195192059
65	9933532	1194.078648164	5.067634522
