version 2
run ChordDht-3-20211204-00:03:13-3224
attr Lifetime 400s
attr configname ChordDht
attr datetime 20211204-00:03:13
attr experiment ChordDht
attr inifile configs.ini
attr iterationvars $Lifetime=400s
attr iterationvars2 "$Lifetime=400s, $repetition=0"
attr measurement $Lifetime=400s
attr network oversim.underlay.simpleunderlay.SimpleUnderlayNetwork
attr processid 3224
attr repetition 0
attr replication #0
attr resultdir results
attr runnumber 3
attr seedset 3

vector 19  SimpleUnderlayNetwork.globalObserver.globalStatistics  "GlobalNodeList: Number of nodes"  ETV
vector 20  SimpleUnderlayNetwork.globalObserver.globalStatistics  "GlobalDhtTestMap: Number of stored DHT entries"  ETV
vector 21  SimpleUnderlayNetwork.globalObserver.globalStatistics  "LifetimeChurn: Time between deletes"  ETV
vector 22  SimpleUnderlayNetwork.globalObserver.globalStatistics  "LifetimeChurn: Session Time"  ETV
vector 23  SimpleUnderlayNetwork.globalObserver.globalStatistics  "LifetimeChurn: Time between creates"  ETV
19	1142252	200	1004
19	1475984	250	1011
19	1822101	300	1018
19	2160235	350	1016
19	2503444	400	1022
19	2838838	450	1027
19	3166464	500	1040
19	3496023	550	1047
19	3814136	600	1044
19	4111699	650	1020
19	4397654	700	994
19	4669295	750	1030
19	4952225	800	1034
19	5229017	850	1015
19	5511903	900	1008
19	5778150	950	992
19	6048163	1000	1012
19	6325742	1050	996
19	6586066	1100	1007
19	6856518	1150	1016
20	1142253	200	1403
20	1213313	210	1568
20	1286362	220	1719
20	1347946	230	1860
20	1411566	240	1998
20	1475985	250	2151
20	1548855	260	2320
20	1617137	270	2482
20	1685764	280	2631
20	1752474	290	2760
20	1822102	300	2919
20	1891016	310	3061
20	1963920	320	3224
20	2029655	330	3372
20	2097182	340	3527
20	2160236	350	3675
20	2221164	360	3825
20	2291855	370	3965
20	2369999	380	4132
20	2438188	390	4278
20	2503445	400	4452
20	2568979	410	4509
20	2635339	420	4559
20	2700917	430	4558
20	2771278	440	4551
20	2838839	450	4532
20	2905117	460	4517
20	2967246	470	4550
20	3030650	480	4557
20	3095575	490	4594
20	3166465	500	4574
20	3232256	510	4566
20	3303750	520	4577
20	3367441	530	4583
20	3432185	540	4591
20	3496024	550	4598
20	3563539	560	4591
20	3626308	570	4564
20	3691884	580	4575
20	3756180	590	4610
20	3814137	600	4602
20	3874199	610	4625
20	3936421	620	4618
20	3994228	630	4613
20	4055139	640	4608
20	4111700	650	4612
20	4170758	660	4624
20	4228862	670	4628
20	4286870	680	4632
20	4341986	690	4627
20	4397655	700	4612
20	4449566	710	4604
20	4503534	720	4604
20	4557104	730	4612
20	4614854	740	4608
20	4669296	750	4614
20	4726353	760	4622
20	4783273	770	4598
20	4840583	780	4620
20	4897654	790	4603
20	4952226	800	4627
20	5008744	810	4633
20	5068527	820	4626
20	5123205	830	4623
20	5175595	840	4626
20	5229018	850	4642
20	5285631	860	4632
20	5338012	870	4655
20	5396565	880	4652
20	5453194	890	4637
20	5511904	900	4634
20	5564231	910	4606
20	5621733	920	4604
20	5673018	930	4621
20	5725043	940	4622
20	5778151	950	4622
20	5829791	960	4604
20	5883597	970	4613
20	5939118	980	4579
20	5993007	990	4594
20	6048164	1000	4575
20	6105305	1010	4594
20	6167290	1020	4600
20	6217961	1030	4611
20	6273052	1040	4595
20	6325743	1050	4596
20	6377224	1060	4598
20	6430684	1070	4589
20	6480033	1080	4592
20	6533707	1090	4600
20	6586067	1100	4582
20	6638497	1110	4561
20	6692927	1120	4577
20	6745420	1130	4584
20	6802366	1140	4571
20	6856519	1150	4564
20	6911247	1160	4572
20	6969326	1170	4563
20	7025872	1180	4562
20	7076872	1190	4534
21	1142677	200.043868845	0.207400509
21	1142695	200.049300084	0.005431239
21	1143324	200.132508583	0.083208499
21	1143863	200.19531733	0.062808747
21	1144611	200.289238501	0.093921171
21	1149886	200.969690638	0.680452137
21	1151373	201.135527945	0.165837307
21	1152589	201.264775322	0.129247377
21	1155073	201.601074462	0.33629914
21	1156246	201.760683036	0.159608574
21	1159805	202.205089364	0.444406328
21	1161873	202.527556615	0.322467251
21	1167117	203.14989617	0.622339555
21	1171427	203.66396629	0.51407012
21	1175901	204.336235845	0.672269555
21	1182948	205.354652438	1.018416593
21	1184175	205.48266386	0.128011422
21	1189018	206.045842926	0.563179066
21	1189223	206.076997872	0.031154946
21	1195244	207.06121509	0.984217218
21	1196564	207.272192388	0.210977298
21	1197301	207.399383157	0.127190769
21	1198485	207.576305231	0.176922074
21	1198884	207.63142116	0.055115929
21	1199510	207.742754335	0.111333175
21	1199791	207.791503023	0.048748688
21	1210185	209.462139074	1.670636051
21	1212612	209.892648883	0.430509809
21	1217744	210.615537912	0.722889029
21	1221428	211.096169683	0.480631771
21	1224302	211.458955322	0.362785639
21	1224950	211.549868692	0.09091337
21	1226709	211.817984795	0.268116103
21	1231147	212.388943294	0.570958499
21	1237878	213.195468223	0.806524929
21	1238513	213.276631793	0.08116357
21	1238805	213.325682537	0.049050744
21	1240803	213.617035431	0.291352894
21	1241087	213.658178853	0.041143422
21	1249604	214.858889294	1.200710441
21	1249923	214.893883088	0.034993794
21	1251229	215.061466984	0.167583896
21	1251797	215.141450559	0.079983575
21	1253331	215.397875756	0.256425197
21	1259529	216.170372724	0.772496968
21	1259945	216.236893021	0.066520297
21	1260934	216.377948804	0.141055783
21	1265791	216.969502045	0.591553241
21	1268054	217.23731451	0.267812465
21	1270388	217.586304331	0.348989821
21	1270580	217.628069955	0.041765624
21	1284291	219.661990446	2.033920491
21	1288973	220.358485033	0.696494587
21	1296205	221.324997435	0.966512402
21	1298759	221.81219691	0.487199475
21	1299293	221.911684154	0.099487244
21	1302564	222.295926411	0.384242257
21	1303155	222.375218096	0.079291685
21	1306077	222.866497027	0.491278931
21	1307003	223.026136919	0.159639892
21	1307815	223.191856094	0.165719175
21	1309026	223.42374082	0.231884726
21	1311584	223.907426406	0.483685586
21	1311843	223.968723518	0.061297112
21	1313387	224.32761127	0.358887752
21	1313541	224.347738354	0.020127084
21	1314053	224.44156301	0.093824656
21	1315441	224.701904224	0.260341214
21	1315801	224.755765446	0.053861222
21	1316884	224.928996691	0.173231245
21	1317153	224.993682102	0.064685411
21	1319156	225.335449617	0.341767515
21	1321816	225.701148408	0.365698791
21	1326640	226.318914368	0.61776596
21	1336209	227.89386541	1.574951042
21	1337218	228.097154743	0.203289333
21	1338073	228.280718953	0.18356421
21	1338172	228.300155144	0.019436191
21	1338401	228.353586983	0.053431839
21	1338828	228.433482846	0.079895863
21	1339247	228.507412359	0.073929513
21	1342597	229.139096642	0.631684283
21	1343640	229.334921772	0.19582513
21	1343858	229.374318083	0.039396311
21	1343880	229.376437839	0.002119756
21	1345200	229.573435172	0.196997333
21	1349909	230.301429444	0.727994272
21	1350351	230.379924819	0.078495375
21	1356727	231.286243275	0.906318456
21	1362613	232.206860606	0.920617331
21	1364110	232.456920101	0.250059495
21	1367113	232.989276992	0.532356891
21	1367678	233.121660821	0.132383829
21	1373171	233.990455319	0.868794498
21	1374653	234.288543317	0.298087998
21	1377896	234.795398484	0.506855167
21	1378426	234.872177665	0.076779181
21	1379925	235.14548928	0.273311615
21	1382039	235.621098851	0.475609571
21	1384216	235.977727756	0.356628905
21	1385521	236.136017376	0.15828962
21	1385889	236.189885479	0.053868103
21	1387096	236.35951067	0.169625191
21	1388007	236.51254244	0.15303177
21	1388991	236.745938898	0.233396458
21	1395089	237.564162123	0.818223225
21	1395159	237.573918315	0.009756192
21	1396403	237.686556969	0.112638654
21	1408943	239.331955305	1.645398336
21	1409363	239.431629319	0.099674014
21	1411092	239.886825995	0.455196676
21	1413943	240.444182425	0.55735643
21	1414393	240.525461102	0.081278677
21	1414902	240.626164411	0.100703309
21	1423719	242.095798606	1.469634195
21	1427677	242.812912895	0.717114289
21	1428413	242.94360995	0.130697055
21	1429915	243.216320606	0.272710656
21	1430143	243.256037253	0.039716647
21	1435535	244.002701744	0.746664491
21	1436573	244.155046007	0.152344263
21	1440958	244.746005986	0.590959979
21	1448365	245.841497418	1.095491432
21	1450576	246.175254091	0.333756673
21	1450913	246.218872302	0.043618211
21	1455085	246.758479676	0.539607374
21	1459629	247.451056005	0.692576329
21	1460537	247.613102128	0.162046123
21	1462496	247.972629793	0.359527665
21	1463981	248.216186415	0.243556622
21	1464601	248.305078938	0.088892523
21	1472401	249.421635097	1.116556159
21	1476074	250.013323003	0.591687906
21	1476320	250.048178223	0.03485522
21	1478058	250.288771469	0.240593246
21	1479863	250.496076042	0.207304573
21	1483530	250.954765323	0.458689281
21	1489507	251.807133366	0.852368043
21	1491027	252.09488702	0.287753654
21	1491361	252.152343557	0.057456537
21	1500853	253.359147565	1.206804008
21	1502067	253.518812145	0.15966458
21	1514799	255.203590998	1.684778853
21	1522186	256.186437222	0.982846224
21	1529121	257.17745806	0.991020838
21	1531136	257.490931572	0.313473512
21	1535477	258.117539522	0.62660795
21	1536129	258.199937917	0.082398395
21	1537234	258.343929211	0.143991294
21	1539664	258.655822412	0.311893201
21	1541559	258.937093515	0.281271103
21	1542820	259.14440443	0.207310915
21	1544246	259.338256929	0.193852499
21	1544912	259.442658204	0.104401275
21	1546494	259.677662985	0.235004781
21	1548207	259.914095132	0.236432147
21	1549596	260.11896211	0.204866978
21	1552339	260.527245536	0.408283426
21	1558983	261.492936178	0.965690642
21	1567015	262.70105411	1.208117932
21	1567131	262.729482559	0.028428449
21	1567340	262.767885649	0.03840309
21	1574323	263.736791215	0.968905566
21	1575299	263.87601764	0.139226425
21	1576054	264.006069133	0.130051493
21	1579172	264.50480474	0.498735607
21	1579311	264.528225074	0.023420334
21	1580285	264.64838689	0.120161816
21	1582246	264.951764392	0.303377502
21	1591421	266.13582763	1.184063238
21	1591950	266.224161456	0.088333826
21	1595126	266.746909777	0.522748321
21	1596660	266.993490329	0.246580552
21	1598951	267.310488867	0.316998538
21	1605285	268.45454448	1.144055613
21	1610389	269.172272266	0.717727786
21	1612276	269.41309463	0.240822364
21	1613190	269.547077647	0.133983017
21	1614286	269.706617668	0.159540021
21	1619953	270.271240911	0.564623243
21	1620132	270.295575873	0.024334962
21	1620948	270.409553047	0.113977174
21	1626670	271.105466733	0.695913686
21	1628087	271.335451342	0.229984609
21	1629019	271.487343944	0.151892602
21	1633370	272.223138099	0.735794155
21	1633939	272.306278783	0.083140684
21	1635003	272.484998135	0.178719352
21	1636365	272.651271925	0.16627379
21	1640979	273.338765563	0.687493638
21	1647635	274.440575398	1.101809835
21	1653217	275.143992966	0.703417568
21	1656346	275.629184294	0.485191328
21	1659096	275.925858513	0.296674219
21	1662475	276.385229481	0.459370968
21	1664507	276.738163435	0.352933954
21	1670480	277.696385312	0.958221877
21	1670650	277.726448964	0.030063652
21	1672380	277.988584714	0.26213575
21	1673224	278.111497573	0.122912859
21	1680104	279.16161512	1.050117547
21	1682640	279.527378743	0.365763623
21	1684919	279.854970285	0.327591542
21	1691221	280.873351261	1.018380976
21	1697233	281.772686669	0.899335408
21	1697723	281.83874358	0.066056911
21	1704481	282.793371105	0.954627525
21	1708913	283.46771904	0.674347935
21	1711443	283.826525329	0.358806289
21	1711889	283.903251909	0.07672658
21	1713054	284.146300829	0.24304892
21	1713794	284.297481051	0.151180222
21	1718336	284.892456974	0.594975923
21	1719979	285.084897778	0.192440804
21	1720947	285.200766385	0.115868607
21	1722580	285.413629707	0.212863322
21	1723231	285.504715993	0.091086286
21	1724849	285.697278388	0.192562395
21	1733493	287.110795448	1.41351706
21	1735654	287.46986241	0.359066962
21	1736623	287.615492726	0.145630316
21	1744415	288.831228003	1.215735277
21	1748218	289.4546034	0.623375397
21	1751686	289.914105139	0.459501739
21	1752822	290.04356866	0.129463521
21	1761181	291.223786744	1.180218084
21	1766440	292.054171624	0.83038488
21	1769991	292.445600777	0.391429153
21	1772833	292.801526226	0.355925449
21	1777442	293.592091103	0.790564877
21	1777801	293.660753476	0.068662373
21	1786159	295.073663479	1.412910003
21	1787997	295.299469097	0.225805618
21	1789741	295.515211816	0.215742719
21	1790080	295.562671694	0.047459878
21	1790215	295.579802615	0.017130921
21	1791477	295.736205569	0.156402954
21	1794185	296.059398124	0.323192555
21	1797968	296.584407345	0.525009221
21	1800099	296.929772753	0.345365408
21	1800391	296.984661751	0.054888998
21	1803408	297.437694219	0.453032468
21	1808038	297.994872325	0.557178106
21	1812022	298.557377845	0.56250552
21	1813555	298.776933808	0.219555963
21	1815062	298.987713956	0.210780148
21	1816244	299.192769838	0.205055882
21	1831619	301.193278729	2.000508891
21	1835077	301.757628452	0.564349723
21	1840373	302.515482718	0.757854266
21	1842534	302.891404613	0.375921895
21	1843090	302.945388544	0.053983931
21	1844318	303.106380996	0.160992452
21	1847137	303.52701687	0.420635874
21	1849014	303.845836903	0.318820033
21	1851034	304.231349735	0.385512832
21	1854460	304.803556198	0.572206463
21	1855865	305.012983515	0.209427317
21	1855990	305.028417861	0.015434346
21	1856815	305.151340411	0.12292255
21	1857017	305.176656988	0.025316577
21	1862872	305.878515141	0.701858153
21	1864359	306.08212591	0.203610769
21	1864865	306.158240943	0.076115033
21	1866884	306.452778916	0.294537973
21	1870544	307.0391851	0.586406184
21	1873845	307.536795834	0.497610734
21	1876755	307.993245774	0.45644994
21	1878164	308.233575934	0.24033016
21	1879720	308.511925308	0.278349374
21	1880823	308.704118788	0.19219348
21	1881984	308.86293027	0.158811482
21	1882904	309.005223885	0.142293615
21	1888232	309.62874666	0.623522775
21	1890179	309.86920568	0.24045902
21	1891376	310.065504332	0.196298652
21	1894149	310.484386597	0.418882265
21	1896364	310.76600012	0.281613523
21	1897372	310.887870699	0.121870579
21	1897512	310.904385812	0.016515113
21	1897861	310.943260728	0.038874916
21	1899181	311.113008904	0.169748176
21	1901569	311.371242109	0.258233205
21	1904752	311.657688099	0.28644599
21	1905772	311.788815231	0.131127132
21	1911945	312.592522627	0.803707396
21	1914843	312.935433935	0.342911308
21	1916439	313.159553604	0.224119669
21	1916760	313.216856184	0.05730258
21	1917450	313.324643875	0.107787691
21	1917486	313.32966541	0.005021535
21	1917686	313.370612608	0.040947198
21	1918108	313.443700992	0.073088384
21	1918942	313.581091497	0.137390505
21	1920121	313.792514131	0.211422634
21	1920658	313.89377555	0.101261419
21	1920882	313.945625418	0.051849868
21	1921602	314.086092687	0.140467269
21	1928283	315.149813924	1.063721237
21	1928741	315.23399356	0.084179636
21	1931478	315.608137437	0.374143877
21	1933929	315.913528151	0.305390714
21	1937551	316.45253184	0.539003689
21	1938688	316.609731891	0.157200051
21	1940680	316.805872915	0.196141024
21	1947290	317.664502766	0.858629851
21	1951649	318.345259279	0.680756513
21	1954326	318.830510863	0.485251584
21	1957966	319.233498478	0.402987615
21	1958225	319.27241123	0.038912752
21	1958417	319.299325766	0.026914536
21	1959375	319.464669691	0.165343925
21	1967129	320.40157264	0.936902949
21	1967865	320.512908099	0.111335459
21	1969616	320.707528731	0.194620632
21	1972494	321.073446445	0.365917714
21	1979080	322.072041384	0.998594939
21	1983798	322.818856045	0.746814661
21	1985643	323.095445758	0.276589713
21	1986129	323.186305848	0.09086009
21	1990339	323.884489017	0.698183169
21	1990625	323.939067205	0.054578188
21	1993084	324.402292756	0.463225551
21	1993140	324.410020165	0.007727409
21	1993200	324.418408274	0.008388109
21	1995000	324.720326048	0.301917774
21	1997165	325.189420747	0.469094699
21	1997780	325.297588786	0.108168039
21	2006636	326.736059082	1.438470296
21	2009134	327.197871841	0.461812759
21	2009340	327.222145547	0.024273706
21	2009609	327.265238716	0.043093169
21	2009661	327.277550875	0.012312159
21	2018938	328.479380515	1.20182964
21	2021945	328.953797049	0.474416534
21	2026407	329.539821044	0.586023995
21	2027791	329.701340056	0.161519012
21	2032113	330.307864126	0.60652407
21	2033057	330.458335802	0.150471676
21	2034611	330.698643882	0.24030808
21	2037930	331.146285493	0.447641611
21	2039817	331.418409411	0.272123918
21	2044764	332.117862266	0.699452855
21	2046432	332.33028685	0.212424584
21	2049234	332.629175306	0.298888456
21	2050418	332.774121552	0.144946246
21	2053286	333.299984064	0.525862512
21	2053920	333.45914665	0.159162586
21	2054528	333.566522586	0.107375936
21	2054531	333.568001814	0.001479228
21	2056817	334.023826633	0.455824819
21	2058309	334.196594235	0.172767602
21	2059481	334.345749182	0.149154947
21	2060308	334.453163476	0.107414294
21	2061229	334.563549465	0.110385989
21	2062696	334.763401867	0.199852402
21	2063027	334.798679569	0.035277702
21	2071026	335.976520111	1.177840542
21	2075474	336.63235831	0.655838199
21	2076203	336.749692376	0.117334066
21	2077976	337.012078745	0.262386369
21	2087026	338.282370782	1.270292037
21	2087554	338.376774943	0.094404161
21	2090807	339.045539227	0.668764284
21	2091287	339.14462875	0.099089523
21	2093806	339.541555571	0.396926821
21	2094382	339.637861211	0.09630564
21	2111627	342.150468013	2.512606802
21	2111723	342.163134441	0.012666428
21	2115014	342.802548206	0.639413765
21	2117230	343.223406359	0.420858153
21	2118088	343.397343647	0.173937288
21	2118954	343.559304969	0.161961322
21	2124395	344.282337847	0.723032878
21	2128078	344.857630563	0.575292716
21	2130695	345.382780359	0.525149796
21	2130844	345.426608141	0.043827782
21	2131277	345.516285954	0.089677813
21	2131474	345.56625693	0.049970976
21	2136526	346.278206467	0.711949537
21	2137743	346.467613773	0.189407306
21	2142526	347.052206852	0.584593079
21	2143184	347.152604908	0.100398056
21	2147963	347.912071209	0.759466301
21	2148500	348.022985799	0.11091459
21	2151322	348.579262576	0.556276777
21	2151540	348.636641814	0.057379238
21	2151964	348.711746293	0.075104479
21	2161719	350.202544057	1.490797764
21	2162912	350.394186984	0.191642927
21	2164940	350.728879574	0.33469259
21	2168426	351.193306677	0.464427103
21	2169740	351.425262109	0.231955432
21	2170772	351.602957265	0.177695156
21	2173120	351.888225537	0.285268272
21	2178357	352.868547224	0.980321687
21	2179093	352.989696599	0.121149375
21	2181252	353.354895197	0.365198598
21	2182890	353.702847658	0.347952461
21	2183758	353.90726964	0.204421982
21	2189283	354.819051895	0.911782255
21	2189312	354.826863725	0.00781183
21	2191776	355.266352749	0.439489024
21	2205249	357.416192538	2.149839789
21	2217913	359.543647648	2.12745511
21	2218623	359.641156641	0.097508993
21	2220084	359.853198579	0.212041938
21	2220291	359.889812841	0.036614262
21	2221724	360.063963837	0.174150996
21	2224150	360.37060937	0.306645533
21	2224979	360.48170462	0.11109525
21	2228339	360.986039982	0.504335362
21	2229006	361.057933242	0.07189326
21	2229568	361.111497936	0.053564694
21	2232011	361.457181074	0.345683138
21	2232971	361.607239713	0.150058639
21	2238855	362.50665915	0.899419437
21	2238960	362.530288116	0.023628966
21	2244828	363.391988017	0.861699901
21	2246924	363.698521109	0.306533092
21	2253438	364.681632562	0.983111453
21	2253532	364.693702478	0.012069916
21	2254064	364.76035515	0.066652672
21	2255671	364.9174745	0.15711935
21	2259567	365.465037919	0.547563419
21	2263585	366.060016117	0.594978198
21	2264929	366.26321374	0.203197623
21	2268030	366.703412382	0.440198642
21	2271881	367.203565216	0.500152834
21	2274419	367.594793581	0.391228365
21	2277989	368.082577023	0.487783442
21	2278035	368.093277933	0.01070091
21	2278825	368.234596387	0.141318454
21	2283038	368.812149981	0.577553594
21	2286313	369.295767607	0.483617626
21	2288656	369.629587249	0.333819642
21	2289900	369.82362869	0.194041441
21	2293575	370.234063676	0.410434986
21	2297756	370.786110223	0.552046547
21	2304488	371.561134838	0.775024615
21	2313878	372.790183312	1.229048474
21	2320114	373.681495412	0.8913121
21	2330021	375.078378079	1.396882667
21	2330922	375.195401508	0.117023429
21	2331191	375.213846726	0.018445218
21	2333065	375.429674663	0.215827937
21	2334113	375.584764989	0.155090326
21	2334361	375.622721642	0.037956653
21	2334490	375.644416183	0.021694541
21	2337693	376.057404014	0.412987831
21	2340336	376.392704417	0.335300403
21	2344435	376.885130122	0.492425705
21	2344862	376.947367827	0.062237705
21	2346133	377.128728998	0.181361171
21	2358005	378.573586866	1.444857868
21	2358270	378.605245757	0.031658891
21	2360369	378.855136872	0.249891115
21	2362326	379.172358667	0.317221795
21	2374858	380.703790803	1.531432136
21	2380282	381.524060406	0.820269603
21	2383660	382.026629363	0.502568957
21	2385118	382.226886485	0.200257122
21	2394070	383.344389612	1.117503127
21	2394223	383.364302904	0.019913292
21	2395589	383.526099522	0.161796618
21	2396762	383.682067371	0.155967849
21	2403888	384.792807841	1.11074047
21	2404069	384.817580319	0.024772478
21	2406982	385.256508869	0.43892855
21	2407979	385.422890243	0.166381374
21	2411998	385.960319362	0.537429119
21	2414000	386.214499016	0.254179654
21	2414821	386.343573936	0.12907492
21	2416236	386.611330011	0.267756075
21	2417311	386.783379712	0.172049701
21	2423275	387.722800828	0.939421116
21	2424152	387.871332133	0.148531305
21	2425135	388.026524691	0.155192558
21	2426325	388.264465806	0.237941115
21	2430111	388.846725753	0.582259947
21	2432863	389.238522504	0.391796751
21	2435409	389.586911721	0.348389217
21	2438365	390.026788891	0.43987717
21	2439070	390.127774615	0.100985724
21	2439563	390.207613034	0.079838419
21	2441310	390.505374277	0.297761243
21	2444127	390.831169743	0.325795466
21	2450440	391.612552044	0.781382301
21	2454229	392.228589278	0.616037234
21	2454807	392.326852045	0.098262767
21	2457626	392.695056382	0.368204337
21	2459634	392.941509463	0.246453081
21	2460739	393.137498526	0.195989063
21	2461290	393.229716296	0.09221777
21	2462073	393.381638217	0.151921921
21	2465299	393.981171959	0.599533742
21	2466582	394.212734937	0.231562978
21	2467174	394.312978012	0.100243075
21	2467658	394.415310874	0.102332862
21	2471089	394.987114471	0.571803597
21	2471139	394.997666946	0.010552475
21	2471660	395.120684726	0.12301778
21	2472762	395.292633761	0.171949035
21	2476228	395.756215917	0.463582156
21	2477093	395.856730957	0.10051504
21	2481293	396.36300691	0.506275953
21	2481350	396.37236596	0.00935905
21	2482268	396.497838676	0.125472716
21	2486648	397.255135486	0.75729681
21	2489432	397.756978639	0.501843153
21	2496791	398.922963303	1.165984664
21	2497995	399.131001586	0.208038283
21	2498217	399.15021266	0.019211074
21	2498665	399.182352897	0.032140237
21	2499454	399.30098188	0.118628983
21	2501756	399.704014088	0.403032208
21	2502402	399.81121081	0.107196722
21	2506119	400.432407061	0.621196251
21	2512971	401.333063888	0.900656827
21	2516737	401.920540193	0.587476305
21	2517492	402.036944266	0.116404073
21	2520753	402.544769442	0.507825176
21	2523654	402.896142429	0.351372987
21	2524373	402.998598347	0.102455918
21	2531552	404.24091255	1.242314203
21	2534143	404.675092092	0.434179542
21	2538707	405.256072918	0.580980826
21	2539576	405.38390389	0.127830972
21	2543742	406.039139288	0.655235398
21	2544799	406.222928033	0.183788745
21	2546346	406.539504183	0.31657615
21	2547927	406.837260833	0.29775665
21	2549378	407.089876954	0.252616121
21	2549414	407.094286139	0.004409185
21	2550981	407.418106606	0.323820467
21	2552154	407.578340543	0.160233937
21	2553094	407.692211203	0.11387066
21	2553230	407.710484382	0.018273179
21	2554722	407.932577102	0.22209272
21	2556350	408.167516473	0.234939371
21	2558010	408.274955395	0.107438922
21	2563924	409.189351566	0.914396171
21	2565040	409.370227816	0.18087625
21	2569553	410.099663151	0.729435335
21	2571040	410.321457067	0.221793916
21	2573247	410.595856082	0.274399015
21	2574729	410.776036516	0.180180434
21	2575799	410.965912668	0.189876152
21	2575959	410.996168061	0.030255393
21	2578695	411.43728854	0.441120479
21	2582742	412.109225196	0.671936656
21	2584190	412.345882216	0.23665702
21	2585786	412.587155882	0.241273666
21	2587939	412.901948474	0.314792592
21	2589851	413.226715556	0.324767082
21	2593325	413.768515827	0.541800271
21	2595094	414.044419022	0.275903195
21	2595269	414.076430932	0.03201191
21	2606614	415.725523097	1.649092165
21	2608184	415.936700381	0.211177284
21	2617182	417.073790867	1.137090486
21	2622541	417.892060323	0.818269456
21	2623434	418.054492382	0.162432059
21	2625016	418.347112579	0.292620197
21	2625683	418.488156901	0.141044322
21	2648933	421.805034642	3.316877741
21	2650837	422.10415687	0.299122228
21	2653742	422.531425543	0.427268673
21	2655229	422.728786243	0.1973607
21	2656066	422.887423793	0.15863755
21	2656347	422.937131023	0.04970723
21	2656876	423.046917182	0.109786159
21	2660246	423.60378147	0.556864288
21	2663038	424.152345418	0.548563948
21	2663616	424.273519136	0.121173718
21	2665923	424.66685421	0.393335074
21	2667991	424.994586562	0.327732352
21	2672740	425.804100839	0.809514277
21	2674720	426.142949576	0.338848737
21	2677230	426.574070769	0.431121193
21	2680091	427.025906718	0.451835949
21	2681183	427.191083754	0.165177036
21	2681934	427.302654279	0.111570525
21	2683625	427.563532822	0.260878543
21	2688271	428.357239424	0.793706602
21	2690954	428.681507606	0.324268182
21	2698989	429.676530794	0.995023188
21	2699183	429.703081297	0.026550503
21	2700182	429.849431532	0.146350235
21	2700290	429.8744168	0.024985268
21	2709748	431.283673138	1.409256338
21	2712233	431.673263647	0.389590509
21	2713448	431.853116698	0.179853051
21	2713588	431.882733254	0.029616556
21	2716098	432.192592526	0.309859272
21	2716678	432.286489976	0.09389745
21	2721699	433.01117447	0.724684494
21	2729762	434.341104538	1.329930068
21	2732377	434.752832759	0.411728221
21	2739320	435.716415698	0.963582939
21	2752853	437.364178945	1.647763247
21	2756301	437.835192582	0.471013637
21	2759141	438.239725471	0.404532889
21	2759145	438.239949996	0.000224525
21	2760744	438.464809014	0.224859018
21	2761812	438.626063068	0.161254054
21	2762754	438.766425341	0.140362273
21	2764291	439.071283791	0.30485845
21	2768566	439.645840474	0.574556683
21	2769243	439.721265362	0.075424888
21	2777237	440.892581779	1.171316417
21	2777337	440.90414843	0.011566651
21	2781646	441.476657472	0.572509042
21	2788107	442.197551093	0.720893621
21	2789840	442.465252144	0.267701051
21	2791324	442.679104763	0.213852619
21	2793243	442.98226423	0.303159467
21	2796196	443.522007651	0.539743421
21	2800846	444.354158817	0.832151166
21	2801808	444.576654666	0.222495849
21	2801814	444.577653116	0.00099845
21	2806911	445.483505313	0.905852197
21	2807134	445.530054121	0.046548808
21	2807827	445.578253773	0.048199652
21	2810129	445.840990533	0.26273676
21	2811925	446.093160498	0.252169965
21	2821873	447.633966872	1.540806374
21	2827142	448.303970704	0.670003832
21	2827803	448.400055669	0.096084965
21	2829997	448.668363314	0.268307645
21	2831960	448.928178813	0.259815499
21	2835624	449.486902813	0.558724
21	2838125	449.882682111	0.395779298
21	2842538	450.558445541	0.67576343
21	2846455	451.161636973	0.603191432
21	2850727	451.820543368	0.658906395
21	2857395	452.694392565	0.873849197
21	2862499	453.591554776	0.897162211
21	2866798	454.18070741	0.589152634
21	2871369	454.861023753	0.680316343
21	2871669	454.918333141	0.057309388
21	2874456	455.416155367	0.497822226
21	2877008	455.792387214	0.376231847
21	2880332	456.27247775	0.480090536
21	2882018	456.43628365	0.1638059
21	2886865	457.049136447	0.612852797
21	2887295	457.103087013	0.053950566
21	2891738	457.712923326	0.609836313
21	2892037	457.752384461	0.039461135
21	2894654	458.24027019	0.487885729
21	2895645	458.411552958	0.171282768
21	2898991	458.977176172	0.565623214
21	2899534	459.105563591	0.128387419
21	2900531	459.285387179	0.179823588
21	2901838	459.471218461	0.185831282
21	2905445	460.039101918	0.567883457
21	2922197	462.268226143	2.229124225
21	2923988	462.583297055	0.315070912
21	2928381	463.250748138	0.667451083
21	2929706	463.451503426	0.200755288
21	2933244	464.03640228	0.584898854
21	2935841	464.451561343	0.415159063
21	2950336	467.218333205	2.766771862
21	2955401	468.103648964	0.885315759
21	2955742	468.157973926	0.054324962
21	2956110	468.212259269	0.054285343
21	2956126	468.214618823	0.002359554
21	2958637	468.701016657	0.486397834
21	2959759	468.921086048	0.220069391
21	2960424	469.077675478	0.15658943
21	2960764	469.169567096	0.091891618
21	2964160	469.629711666	0.46014457
21	2966476	469.872492506	0.24278084
21	2966868	469.93304133	0.060548824
21	2974639	471.223778937	1.290737607
21	2977320	471.61066612	0.386887183
21	2977773	471.680740769	0.070074649
21	2977961	471.714115353	0.033374584
21	2984317	472.449175731	0.735060378
21	2987011	472.923705545	0.474529814
21	2989529	473.378404817	0.454699272
21	2991295	473.676694462	0.298289645
21	2992533	473.864151748	0.187457286
21	2996171	474.393919044	0.529767296
21	2998136	474.681657631	0.287738587
21	3000749	475.162307934	0.480650303
21	3003047	475.585386498	0.423078564
21	3003926	475.73985398	0.154467482
21	3003927	475.739926355	7.2375e-005
21	3005138	475.985545988	0.245619633
21	3011379	476.817344711	0.831798723
21	3018469	477.842450925	1.025106214
21	3019603	478.03800576	0.195554835
21	3023272	478.571808364	0.533802604
21	3025978	479.122801192	0.550992828
21	3026378	479.229124904	0.106323712
21	3030102	479.90805216	0.678927256
21	3030791	480.021744232	0.113692072
21	3031205	480.081482243	0.059738011
21	3036341	480.900104192	0.818621949
21	3046821	482.714574964	1.814470772
21	3046827	482.718300928	0.003725964
21	3047005	482.750908405	0.032607477
21	3047497	482.857228199	0.106319794
21	3050607	483.41625751	0.559029311
21	3052117	483.635240139	0.218982629
21	3057017	484.229153318	0.593913179
21	3064077	485.475943735	1.246790417
21	3066963	486.014153334	0.538209599
21	3067179	486.05968474	0.045531406
21	3071837	486.675537919	0.615853179
21	3074847	487.105293262	0.429755343
21	3079043	487.587211376	0.481918114
21	3080525	487.741081621	0.153870245
21	3082024	487.923812726	0.182731105
21	3082447	487.978758194	0.054945468
21	3083187	488.082863348	0.104105154
21	3086766	488.603546007	0.520682659
21	3091900	489.308217619	0.704671612
21	3091922	489.311324719	0.0031071
21	3093483	489.590661032	0.279336313
21	3095718	490.032813506	0.442152474