version 2
run ChordDht-4-20211204-00:21:14-3224
attr Lifetime 500s
attr configname ChordDht
attr datetime 20211204-00:21:14
attr experiment ChordDht
attr inifile configs.ini
attr iterationvars $Lifetime=500s
attr iterationvars2 "$Lifetime=500s, $repetition=0"
attr measurement $Lifetime=500s
attr network oversim.underlay.simpleunderlay.SimpleUnderlayNetwork
attr processid 3224
attr repetition 0
attr replication #0
attr resultdir results
attr runnumber 4
attr seedset 4

vector 25  SimpleUnderlayNetwork.globalObserver.globalStatistics  "GlobalNodeList: Number of nodes"  ETV
vector 26  SimpleUnderlayNetwork.globalObserver.globalStatistics  "GlobalDhtTestMap: Number of stored DHT entries"  ETV
vector 27  SimpleUnderlayNetwork.globalObserver.globalStatistics  "LifetimeChurn: Time between deletes"  ETV
vector 28  SimpleUnderlayNetwork.globalObserver.globalStatistics  "LifetimeChurn: Session Time"  ETV
vector 29  SimpleUnderlayNetwork.globalObserver.globalStatistics  "LifetimeChurn: Time between creates"  ETV
25	1174850	200	1000
25	1518065	250	1008
25	1881771	300	1010
25	2221246	350	993
25	2563666	400	1024
25	2921586	450	1019
25	3251163	500	997
25	3591261	550	988
25	3912937	600	1012
25	4252513	650	1023
25	4572162	700	1028
25	4892046	750	1016
25	5188599	800	994
25	5482351	850	1003
25	5782955	900	1004
25	6076826	950	1023
25	6389626	1000	1036
25	6706585	1050	1035
25	7032149	1100	1048
25	7359357	1150	1024
26	1174851	200	1441
26	1246817	210	1626
26	1320207	220	1768
26	1384546	230	1922
26	1442122	240	2039
26	1518066	250	2187
26	1594185	260	2344
26	1666690	270	2527
26	1739769	280	2681
26	1814855	290	2824
26	1881772	300	2948
26	1957469	310	3107
26	2028962	320	3264
26	2093845	330	3427
26	2162590	340	3593
26	2221247	350	3724
26	2279209	360	3859
26	2346751	370	4014
26	2417981	380	4180
26	2491142	390	4328
26	2563667	400	4490
26	2636218	410	4552
26	2705643	420	4588
26	2778233	430	4562
26	2847240	440	4575
26	2921587	450	4571
26	2988442	460	4581
26	3059664	470	4604
26	3118539	480	4616
26	3182894	490	4622
26	3251164	500	4622
26	3321932	510	4596
26	3388599	520	4612
26	3456440	530	4611
26	3524151	540	4651
26	3591262	550	4642
26	3655934	560	4628
26	3720815	570	4603
26	3784016	580	4605
26	3848862	590	4603
26	3912938	600	4633
26	3976563	610	4625
26	4049884	620	4618
26	4119426	630	4627
26	4183202	640	4609
26	4252514	650	4625
26	4316086	660	4646
26	4379898	670	4637
26	4446323	680	4639
26	4510814	690	4648
26	4572163	700	4637
26	4633601	710	4654
26	4696807	720	4668
26	4760087	730	4667
26	4826988	740	4647
26	4892047	750	4643
26	4953642	760	4643
26	5009592	770	4614
26	5070054	780	4637
26	5129025	790	4626
26	5188600	800	4635
26	5245739	810	4631
26	5304638	820	4633
26	5366538	830	4632
26	5419209	840	4592
26	5482352	850	4616
26	5544343	860	4627
26	5604080	870	4633
26	5663210	880	4612
26	5721771	890	4622
26	5782956	900	4615
26	5843382	910	4623
26	5896401	920	4625
26	5959509	930	4604
26	6017471	940	4598
26	6076827	950	4614
26	6134037	960	4613
26	6200860	970	4648
26	6261287	980	4636
26	6329676	990	4625
26	6389627	1000	4646
26	6451142	1010	4618
26	6513140	1020	4624
26	6574901	1030	4640
26	6636886	1040	4636
26	6706586	1050	4633
26	6774418	1060	4642
26	6841004	1070	4646
26	6903848	1080	4652
26	6966199	1090	4658
26	7032150	1100	4659
26	7103031	1110	4667
26	7167759	1120	4665
26	7231735	1130	4648
26	7299568	1140	4698
26	7359358	1150	4677
26	7418339	1160	4705
26	7480742	1170	4698
26	7543437	1180	4715
26	7601686	1190	4680
27	1175040	200.029954853	0.041775571
27	1176690	200.211632952	0.181678099
27	1183705	201.072543426	0.860910474
27	1186060	201.438280152	0.365736726
27	1187871	201.731363724	0.293083572
27	1188350	201.810624029	0.079260305
27	1190659	202.132854121	0.322230092
27	1200007	203.547725909	1.414871788
27	1200099	203.559263237	0.011537328
27	1201542	203.774962219	0.215698982
27	1201577	203.781773411	0.006811192
27	1210775	205.203943642	1.422170231
27	1214643	205.741055078	0.537111436
27	1219627	206.345855446	0.604800368
27	1222528	206.778323067	0.432467621
27	1224163	206.99045111	0.212128043
27	1224921	207.101088637	0.110637527
27	1230420	207.901586828	0.800498191
27	1232468	208.258226919	0.356640091
27	1234286	208.500976776	0.242749857
27	1234580	208.522026352	0.021049576
27	1241240	209.234728163	0.712701811
27	1244752	209.712525473	0.47779731
27	1247830	210.14160785	0.429082377
27	1248199	210.202356426	0.060748576
27	1248985	210.347059161	0.144702735
27	1254249	211.047477846	0.700418685
27	1255204	211.170582933	0.123105087
27	1256469	211.331326101	0.160743168
27	1259057	211.71356416	0.382238059
27	1264277	212.481190818	0.767626658
27	1278582	214.422165154	1.940974336
27	1279768	214.590580144	0.16841499
27	1281556	214.834307108	0.243726964
27	1291829	216.206522233	1.372215125
27	1294583	216.579130023	0.37260779
27	1305998	218.111924762	1.532794739
27	1308896	218.531681969	0.419757207
27	1318156	219.730452919	1.19877095
27	1318575	219.789834831	0.059381912
27	1321294	220.127393132	0.337558301
27	1330833	221.291663814	1.164270682
27	1332892	221.53888566	0.247221846
27	1333037	221.559780388	0.020894728
27	1333869	221.69689745	0.137117062
27	1334861	221.870786872	0.173889422
27	1338036	222.393418033	0.522631161
27	1340530	222.7698102	0.376392167
27	1340739	222.808751649	0.038941449
27	1341383	222.912081689	0.10333004
27	1344311	223.448191104	0.536109415
27	1345704	223.676608106	0.228417002
27	1345840	223.700149234	0.023541128
27	1350890	224.493440702	0.793291468
27	1353058	224.861969032	0.36852833
27	1354947	225.19843609	0.336467058
27	1355748	225.350872112	0.152436022
27	1369745	227.680189744	2.329317632
27	1372160	228.115092635	0.434902891
27	1373096	228.312617792	0.197525157
27	1376965	228.874739306	0.562121514
27	1382536	229.662635027	0.787895721
27	1383986	229.899002081	0.236367054
27	1384071	229.916162833	0.017160752
27	1385230	230.132662255	0.216499422
27	1388434	230.7683569	0.635694645
27	1393885	231.684682184	0.916325284
27	1395342	231.940279437	0.255597253
27	1398268	232.415408413	0.475128976
27	1402551	233.126001921	0.710593508
27	1413408	235.061038418	1.935036497
27	1419022	235.93656736	0.875528942
27	1420588	236.159635804	0.223068444
27	1421421	236.288056416	0.128420612
27	1421548	236.306153354	0.018096938
27	1423550	236.729160114	0.42300676
27	1423745	236.773447418	0.044287304
27	1427956	237.621172022	0.847724604
27	1428201	237.664970588	0.043798566
27	1431435	238.270457646	0.605487058
27	1438026	239.232915577	0.962457931
27	1444310	240.385851729	1.152936152
27	1444780	240.46696808	0.081116351
27	1460380	242.558838638	2.091870558
27	1466763	243.355489113	0.796650475
27	1470559	243.953608763	0.59811965
27	1470680	243.969201546	0.015592783
27	1477211	244.644379322	0.675177776
27	1479534	244.882091745	0.237712423
27	1485506	245.631081438	0.748989693
27	1485596	245.646507731	0.015426293
27	1490249	246.271683337	0.625175606
27	1491035	246.386662792	0.114979455
27	1494936	246.921802661	0.535139869
27	1496795	247.135625297	0.213822636
27	1502680	247.958410821	0.822785524
27	1507961	248.679512148	0.721101327
27	1509243	248.874424304	0.194912156
27	1513357	249.397213335	0.522789031
27	1526722	251.104104338	1.706891003
27	1527116	251.148245943	0.044141605
27	1530844	251.654755009	0.506509066
27	1534059	252.133588331	0.478833322
27	1540609	253.053088468	0.919500137
27	1545454	253.77579779	0.722709322
27	1553845	254.661728866	0.885931076
27	1555751	254.879422369	0.217693503
27	1567591	256.335790099	1.45636773
27	1568999	256.487845271	0.152055172
27	1574053	257.264403872	0.776558601
27	1574299	257.298804592	0.03440072
27	1575288	257.434743987	0.135939395
27	1575367	257.441726424	0.006982437
27	1576069	257.544542279	0.102815855
27	1583937	258.718442538	1.173900259
27	1584563	258.82237908	0.103936542
27	1592235	259.750104509	0.927725429
27	1595568	260.177451404	0.427346895
27	1602686	261.269337805	1.091886401
27	1604333	261.555930951	0.286593146
27	1619038	263.558408155	2.002477204
27	1625807	264.568206593	1.009798438
27	1631752	265.366982898	0.798776305
27	1641218	266.570628347	1.203645449
27	1650381	267.973975653	1.403347306
27	1652981	268.338607518	0.364631865
27	1653188	268.365853535	0.027246017
27	1654909	268.600530563	0.234677028
27	1655995	268.725345692	0.124815129
27	1664578	269.785649176	1.060303484
27	1668026	270.150606489	0.364957313
27	1673605	270.860186124	0.709579635
27	1674664	270.993635852	0.133449728
27	1675639	271.119744781	0.126108929
27	1676326	271.20773278	0.087987999
27	1679648	271.774354849	0.566622069
27	1680952	271.976412539	0.20205769
27	1682075	272.136950294	0.160537755
27	1684483	272.461789339	0.324839045
27	1691988	273.555236498	1.093447159
27	1695053	273.865267798	0.3100313
27	1695722	273.944512007	0.079244209
27	1699330	274.449191538	0.504679531
27	1709511	275.792718876	1.343527338
27	1709801	275.824696747	0.031977871
27	1709907	275.838940307	0.01424356
27	1712008	276.203949491	0.365009184
27	1712255	276.249599522	0.045650031
27	1714115	276.616276734	0.366677212
27	1719636	277.469750548	0.853473814
27	1722638	277.888799373	0.419048825
27	1725074	278.277604591	0.388805218
27	1728932	278.810355537	0.532750946
27	1735174	279.541280527	0.73092499
27	1738861	279.93012691	0.388846383
27	1745235	280.653024732	0.722897822
27	1746094	280.74972461	0.096699878
27	1749351	281.125985959	0.376261349
27	1750296	281.281906412	0.155920453
27	1754001	281.831239824	0.549333412
27	1759644	282.606685682	0.775445858
27	1761745	282.870751052	0.26406537
27	1768301	283.716281862	0.84553081
27	1769376	283.829475596	0.113193734
27	1770936	284.008145281	0.178669685
27	1773318	284.291511307	0.283366026
27	1773698	284.337590842	0.046079535
27	1774399	284.440951888	0.103361046
27	1777583	284.870929564	0.429977676
27	1782809	285.604625904	0.73369634
27	1790877	286.545007798	0.940381894
27	1792142	286.758092385	0.213084587
27	1793943	287.097739823	0.339647438
27	1795877	287.374692789	0.276952966
27	1796974	287.508957986	0.134265197
27	1800842	288.157618744	0.648660758
27	1803306	288.541043897	0.383425153
27	1804125	288.597169039	0.056125142
27	1811316	289.532214397	0.935045358
27	1813299	289.785110382	0.252895985
27	1814011	289.882461437	0.097351055
27	1820595	290.930003305	1.047541868
27	1821826	291.142940128	0.212936823
27	1822690	291.31747043	0.174530302
27	1834258	293.021952816	1.704482386
27	1834985	293.151126194	0.129173378
27	1835428	293.205829944	0.05470375
27	1835759	293.242244214	0.03641427
27	1836504	293.374607853	0.132363639
27	1837985	293.654183771	0.279575918
27	1840533	294.017298729	0.363114958
27	1846532	294.904735154	0.887436425
27	1853005	295.664344759	0.759609605
27	1854040	295.795264204	0.130919445
27	1858411	296.533264118	0.737999914
27	1860547	296.945467947	0.412203829
27	1861525	297.106669743	0.161201796
27	1861552	297.111111768	0.004442025
27	1862391	297.24731307	0.136201302
27	1864153	297.568993112	0.321680042
27	1864774	297.682798031	0.113804919
27	1874850	299.02012712	1.337329089
27	1876919	299.262968343	0.242841223
27	1880710	299.7867941	0.523825757
27	1885804	300.56746266	0.78066856
27	1889385	300.999880812	0.432418152
27	1899609	302.417270628	1.417389816
27	1903516	303.037958425	0.620687797
27	1905599	303.332673103	0.294714678
27	1905940	303.393629654	0.060956551
27	1906784	303.53712455	0.143494896
27	1916015	304.780851127	1.243726577
27	1920086	305.303449248	0.522598121
27	1921202	305.468391629	0.164942381
27	1921508	305.514103406	0.045711777
27	1922780	305.706879099	0.192775693
27	1926830	306.245550965	0.538671866
27	1927069	306.282907827	0.037356862
27	1930472	306.691727576	0.408819749
27	1934815	307.217311218	0.525583642
27	1938312	307.63470153	0.417390312
27	1941020	307.847485251	0.212783721
27	1941805	307.921585689	0.074100438
27	1950556	309.074493164	1.152907475
27	1951842	309.246750737	0.172257573
27	1961095	310.542427277	1.29567654
27	1964443	310.918206003	0.375778726
27	1964800	310.96329183	0.045085827
27	1965698	311.085508156	0.122216326
27	1967146	311.232401452	0.146893296
27	1970397	311.665112959	0.432711507
27	1970546	311.690867585	0.025754626
27	1970677	311.718560624	0.027693039
27	1971108	311.782984472	0.064423848
27	1972484	311.98734783	0.204363358
27	1975000	312.388612768	0.401264938
27	1975967	312.530545993	0.141933225
27	1978103	312.898455405	0.367909412
27	1979008	313.011224707	0.112769302
27	1979502	313.086970661	0.075745954
27	1993415	315.090419323	2.003448662
27	1994484	315.268748085	0.178328762
27	1994699	315.295315676	0.026567591
27	1996903	315.605688014	0.310372338
27	1998812	315.844720632	0.239032618
27	2003672	316.630294445	0.785573813
27	2004542	316.793990723	0.163696278
27	2009036	317.396382255	0.602391532
27	2012854	317.86133265	0.464950395
27	2020079	318.80851453	0.94718188
27	2024221	319.460079038	0.651564508
27	2028886	319.987409538	0.5273305
27	2029447	320.07462355	0.087214012
27	2031272	320.288689655	0.214066105
27	2033096	320.598923617	0.310233962
27	2036153	321.096992385	0.498068768
27	2036357	321.13592399	0.038931605
27	2037455	321.379040929	0.243116939
27	2040174	321.806762317	0.427721388
27	2041362	321.984996581	0.178234264
27	2041753	322.0555198	0.070523219
27	2043006	322.257563288	0.202043488
27	2044440	322.46008961	0.202526322
27	2047053	322.804268928	0.344179318
27	2048761	323.123533184	0.319264256
27	2052491	323.648717462	0.525184278
27	2052643	323.67025334	0.021535878
27	2056320	324.198665912	0.528412572
27	2060661	324.923817191	0.725151279
27	2060713	324.930369674	0.006552483
27	2067597	326.146245565	1.215875891
27	2069743	326.510901699	0.364656134
27	2069861	326.528555446	0.017653747
27	2075004	327.296178877	0.767623431
27	2075712	327.414780887	0.11860201
27	2081870	328.429429688	1.014648801
27	2086242	328.95506577	0.525636082
27	2092895	329.878338339	0.923272569
27	2095513	330.231206619	0.35286828
27	2096151	330.330547918	0.099341299
27	2099774	330.818785513	0.488237595
27	2100696	330.922611725	0.103826212
27	2101117	330.961494026	0.038882301
27	2104188	331.446672928	0.485178902
27	2106298	331.785636036	0.338963108
27	2107658	332.064069269	0.278433233
27	2113181	333.126517386	1.062448117
27	2116890	333.639543057	0.513025671
27	2122822	334.335000727	0.69545767
27	2127506	334.841567816	0.506567089
27	2131102	335.215993548	0.374425732
27	2135503	335.771382124	0.555388576
27	2139465	336.303241906	0.531859782
27	2140109	336.374648091	0.071406185
27	2143478	336.815641346	0.440993255
27	2148013	337.546671466	0.73103012
27	2150219	338.002608188	0.455936722
27	2157556	339.281765102	1.279156914
27	2165634	340.41674224	1.134977138
27	2167448	340.656555943	0.239813703
27	2171950	341.304341792	0.647785849
27	2173672	341.599692684	0.295350892
27	2178309	342.319272409	0.719579725
27	2179775	342.601666121	0.282393712
27	2182773	343.191170461	0.58950434
27	2185981	343.840991938	0.649821477
27	2186667	343.980240095	0.139248157
27	2189868	344.456459687	0.476219592
27	2191867	344.793083244	0.336623557
27	2201625	346.282697968	1.489614724
27	2206759	347.198481685	0.915783717
27	2207953	347.394557424	0.196075739
27	2209638	347.73324506	0.338687636
27	2222356	350.257329418	2.524084358
27	2235849	352.769219505	2.511890087
27	2237554	353.110130929	0.340911424
27	2239803	353.47958722	0.369456291
27	2244916	354.262315024	0.782727804
27	2248877	354.777911636	0.515596612
27	2253458	355.534814761	0.756903125
27	2257013	355.968624258	0.433809497
27	2257947	356.125842356	0.157218098
27	2261232	356.760806677	0.634964321
27	2261982	356.928638463	0.167831786
27	2264189	357.28239798	0.353759517
27	2271621	358.724194094	1.441796114
27	2282531	360.583920793	1.859726699
27	2289887	361.79756901	1.213648217
27	2291196	362.051959183	0.254390173
27	2293970	362.392079445	0.340120262
27	2293996	362.400395217	0.008315772
27	2298399	363.140539898	0.740144681
27	2298739	363.189111929	0.048572031
27	2316203	365.706954982	2.517843053
27	2316933	365.813206278	0.106251296
27	2318307	366.008030527	0.194824249
27	2329025	367.559193159	1.551162632
27	2329362	367.603814027	0.044620868
27	2332238	368.002122374	0.398308347
27	2333624	368.233849322	0.231726948
27	2337143	368.656600378	0.422751056
27	2337523	368.700299414	0.043699036
27	2337903	368.754678823	0.054379409
27	2337957	368.760810333	0.00613151
27	2340318	369.064353911	0.303543578
27	2343972	369.602128207	0.537774296
27	2349531	370.396174479	0.794046272
27	2352416	370.773892502	0.377718023
27	2352474	370.7784454	0.004552898
27	2355706	371.132698684	0.354253284
27	2361827	372.072542471	0.939843787
27	2362346	372.176617676	0.104075205
27	2362930	372.280079081	0.103461405
27	2381150	375.136938897	2.856859816
27	2395783	377.060172693	1.923233796
27	2398782	377.453507601	0.393334908
27	2399478	377.542669451	0.08916185
27	2401321	377.77075968	0.228090229
27	2408136	378.692048329	0.921288649
27	2414444	379.540601583	0.848553254
27	2416179	379.758137572	0.217535989
27	2418198	380.041238357	0.283100785
27	2418755	380.124494882	0.083256525
27	2421543	380.572201104	0.447706222
27	2424621	381.0845583	0.512357196
27	2428553	381.812928983	0.728370683
27	2429607	382.010039507	0.197110524
27	2434112	382.649397766	0.639358259
27	2436705	382.846038005	0.196640239
27	2439136	383.068632253	0.222594248
27	2444693	383.936659666	0.868027413
27	2454054	385.019012673	1.082353007
27	2461289	385.977016914	0.958004241
27	2462184	386.080947734	0.10393082
27	2463852	386.30867875	0.227731016
27	2478002	388.161772457	1.853093707
27	2484718	389.143629884	0.981857427
27	2485052	389.186388477	0.042758593
27	2486019	389.327033194	0.140644717
27	2491434	390.051449987	0.724416793
27	2494241	390.528456935	0.477006948
27	2495824	390.742921343	0.214464408
27	2495955	390.765492058	0.022570715
27	2501006	391.509204002	0.743711944
27	2506283	392.266666496	0.757462494
27	2506403	392.275587937	0.008921441
27	2507731	392.45583375	0.180245813
27	2511549	393.043286684	0.587452934
27	2511671	393.06402454	0.020737856
27	2516097	393.760444017	0.696419477
27	2516194	393.778529016	0.018084999
27	2519130	394.200514846	0.42198583
27	2528014	395.142378348	0.941863502
27	2539308	396.267648866	1.125270518
27	2544669	397.059194475	0.791545609
27	2551665	398.178758528	1.119564053
27	2552211	398.258364746	0.079606218
27	2557125	399.024660132	0.766295386
27	2561118	399.588854182	0.56419405
27	2563129	399.897256468	0.308402286
27	2564352	400.119324895	0.222068427
27	2564430	400.133211271	0.013886376
27	2568802	400.761233275	0.628022004
27	2574898	401.519931609	0.758698334
27	2579617	402.180841402	0.660909793
27	2579691	402.187206407	0.006365005
27	2597873	404.525250801	2.338044394
27	2599765	404.770799854	0.245549053
27	2608285	406.022562007	1.251762153
27	2608328	406.026085827	0.00352382
27	2615459	407.008097254	0.982011427
27	2616860	407.250589229	0.242491975
27	2621328	407.928625175	0.678035946
27	2621485	407.959589302	0.030964127
27	2624473	408.319848167	0.360258865
27	2629815	408.98788621	0.668038043
27	2657506	413.141347045	4.153460835
27	2659047	413.364434382	0.223087337
27	2659799	413.471309401	0.106875019
27	2659954	413.495821068	0.024511667
27	2663229	413.946388101	0.450567033
27	2667752	414.569971846	0.623583745
27	2673254	415.405030669	0.835058823
27	2680100	416.269092015	0.864061346
27	2680287	416.307617319	0.038525304
27	2681728	416.514371022	0.206753703
27	2682959	416.745729362	0.23135834
27	2684090	416.924650583	0.178921221
27	2693131	418.19280924	1.268158657
27	2693161	418.200612241	0.007803001
27	2693858	418.293442458	0.092830217
27	2697997	418.894822658	0.6013802
27	2698972	419.067056211	0.172233553
27	2699885	419.183082075	0.116025864
27	2705086	419.887803857	0.704721782
27	2712899	421.126638689	1.238834832
27	2713643	421.267083242	0.140444553
27	2716384	421.658684526	0.391601284
27	2717784	421.82306278	0.164378254
27	2718449	421.913011161	0.089948381
27	2723071	422.473304575	0.560293414
27	2738319	424.543185211	2.069880636
27	2744598	425.596912173	1.053726962
27	2744710	425.614870299	0.017958126
27	2765642	428.353893515	2.739023216
27	2769563	428.918528504	0.564634989
27	2788272	431.120217526	2.201689022
27	2793549	431.933880392	0.813662866
27	2794725	432.14805508	0.214174688
27	2795217	432.216400369	0.068345289
27	2799240	432.901305785	0.684905416
27	2799818	433.01879887	0.117493085
27	2812289	434.897090326	1.878291456
27	2814145	435.180874778	0.283784452
27	2815956	435.467848511	0.286973733
27	2817375	435.690991288	0.223142777
27	2820322	436.08546335	0.394472062
27	2827799	437.195096168	1.109632818
27	2833680	438.030069931	0.834973763
27	2835185	438.232171942	0.202102011
27	2842400	439.332374108	1.100202166
27	2849885	440.397658296	1.065284188
27	2861115	441.977034424	1.579376128
27	2869464	443.087500424	1.110466
27	2871476	443.350179395	0.262678971
27	2872289	443.47895351	0.128774115
27	2875219	443.878797374	0.399843864
27	2876707	444.086922571	0.208125197
27	2885445	445.259328443	1.172405872
27	2905135	447.804014476	2.544686033
27	2910257	448.562157444	0.758142968
27	2917893	449.47423462	0.912077176
27	2919662	449.73086678	0.25663216
27	2928946	451.025006589	1.294139809
27	2929518	451.115785136	0.090778547
27	2930164	451.208370621	0.092585485
27	2930299	451.235025636	0.026655015
27	2938369	452.56056638	1.325540744
27	2938585	452.597010287	0.036443907
27	2942811	453.525521719	0.928511432
27	2945885	453.930419568	0.404897849
27	2946484	454.003741904	0.073322336
27	2950067	454.53459828	0.530856376
27	2950587	454.60521423	0.07061595
27	2955105	455.121290988	0.516076758
27	2957976	455.496018986	0.374727998
27	2960313	455.86336457	0.367345584
27	2965870	456.569587983	0.706223413
27	2968035	456.908211874	0.338623891
27	2970030	457.226542805	0.318330931
27	2971030	457.3579957	0.131452895
27	2971657	457.446210579	0.088214879
27	2977219	458.323654683	0.877444104
27	2978318	458.507389123	0.18373444
27	2978827	458.595600254	0.088211131
27	2980693	458.923686682	0.328086428
27	2982696	459.306342581	0.382655899
27	2983565	459.468233585	0.161891004
27	2989253	460.108606654	0.640373069
27	2989316	460.116654307	0.008047653
27	2998602	461.236340908	1.119686601
27	3006236	462.428181783	1.191840875
27	3006305	462.434074418	0.005892635
27	3009235	462.888117227	0.454042809
27	3015870	463.748104583	0.859987356
27	3018565	464.14831159	0.400207007
27	3023730	464.991524432	0.843212842
27	3030251	466.142961427	1.151436995
27	3031157	466.306446212	0.163484785
27	3031527	466.379549205	0.073102993
27	3033278	466.633247549	0.253698344
27	3033409	466.65200111	0.018753561
27	3038359	467.300523445	0.648522335
27	3042227	467.815900944	0.515377499
27	3050497	468.943061004	1.12716006
27	3054711	469.37316544	0.430104436
27	3058170	469.77200112	0.39883568
27	3064255	470.887638229	1.115637109
27	3071522	472.08870456	1.201066331
27	3073723	472.464069006	0.375364446
27	3074429	472.590848484	0.126779478
27	3078444	473.360878341	0.770029857
27	3082814	474.062465748	0.701587407
27	3087040	474.759087768	0.69662202
27	3089195	475.002193741	0.243105973
27	3091644	475.472315576	0.470121835
27	3092794	475.685872844	0.213557268
27	3094178	475.945224649	0.259351805
27	3094537	475.999199607	0.053974958
27	3098764	476.792273571	0.793073964
27	3099396	476.91134161	0.119068039
27	3099431	476.917510236	0.006168626
27	3099579	476.944534142	0.027023906
27	3100239	477.066155437	0.121621295
27	3100522	477.118515884	0.052360447
27	3101334	477.292583729	0.174067845
27	3103358	477.658361357	0.365777628
27	3107582	478.465445411	0.807084054
27	3109455	478.758993164	0.293547753
27	3111079	479.034831662	0.275838498
27	3118886	480.054214831	1.019383169
27	3120871	480.386349933	0.332135102
27	3122507	480.677964691	0.291614758
27	3125403	481.137569707	0.459605016
27	3128933	481.766389881	0.628820174
27	3135137	482.878680464	1.112290583
27	3135148	482.880621621	0.001941157
27	3136084	482.999453103	0.118831482
27	3138318	483.366831925	0.367378822
27	3141791	483.942015715	0.57518379
27	3141972	483.96035621	0.018340495
27	3145128	484.453121385	0.492765175
27	3146421	484.638135523	0.185014138
27	3148291	484.849635979	0.211500456
27	3150258	485.135542465	0.285906486
27	3153533	485.568404758	0.432862293
27	3164068	487.014757294	1.446352536
27	3166363	487.401283423	0.386526129
27	3167739	487.636534768	0.235251345
27	3174116	488.747343356	1.110808588
27	3180185	489.587528619	0.840185263
27	3180407	489.617563855	0.030035236
27	3181568	489.801977519	0.184413664
27	3185273	490.356198082	0.554220563
27	3186075	490.484267169	0.128069087
27	3187933	490.740253111	0.255985942
27	3200267	492.630157476	1.889904365
27	3211212	494.179394958	1.549237482
27	3214215	494.612146924	0.432751966
27	3221877	495.652659265	1.040512341
27	3224863	496.061317082	0.408657817
27	3233735	497.453610934	1.392293852
27	3235301	497.641135101	0.187524167
27	3236359	497.766932305	0.125797204
27	3236930	497.844258398	0.077326093
27	3243476	498.974345392	1.130086994
27	3246127	499.297991143	0.323645751
27	3246485	499.353443452	0.055452309
27	3250005	499.804622018	0.451178566
27	3253219	500.326585	0.521962982
27	3256116	500.760038101	0.433453101
27	3268380	502.743171048	1.983132947
27	3268667	502.777616616	0.034445568
27	3269623	502.874810444	0.097193828
27	3281211	504.276114759	1.401304315
27	3293859	505.798394411	1.522279652
27	3297493	506.343401823	0.545007412
27	3305280	507.482239838	1.138838015
27	3308852	508.087710401	0.605470563
27	3315618	509.083292339	0.995581938
27	3315725	509.100615128	0.017322789
27	3319649	509.688739268	0.58812414
27	3322941	510.154224481	0.465485213
27	3329490	511.14567587	0.991451389
27	3332150	511.584436756	0.438760886
27	3334619	511.980430595	0.395993839
27	3341991	512.826686833	0.846256238
27	3342329	512.881840318	0.055153485
27	3343265	513.059620842	0.177780524
27	3347215	513.714251721	0.654630879
27	3347491	513.76730035	0.053048629
27	3347782	513.80745324	0.04015289
27	3351407	514.46973518	0.66228194
27	3355203	514.97927037	0.50953519
27	3360431	515.72698115	0.74771078
27	3366794	516.738879771	1.011898621
27	3367541	516.877913198	0.139033427
27	3374045	517.800110217	0.922197019
27	3374501	517.873267391	0.073157174
27	3379800	518.747806392	0.874539001
27	3382069	519.123816245	0.376009853
27	3384108	519.352293029	0.228476784
27	3385504	519.524391375	0.172098346
27	3386680	519.687631644	0.163240269
27	3388000	519.896863389	0.209231745
27	3389783	520.20344006	0.306576671
27	3389792	520.204152285	0.000712225
27	3391420	520.517367709	0.313215424
27	3399710	521.654653232	1.137285523
27	3399724	521.657564632	0.0029114
27	3403351	522.254731472	0.59716684
27	3408080	522.792087221	0.537355749
27	3416984	524.090629824	1.298542603
27	3417049	524.10562445	0.014994626
27	3419060	524.440705078	0.335080628
27	3420636	524.682510587	0.241805509
27	3421390	524.786028156	0.103517569
27	3423270	525.067878099	0.281849943
27	3425279	525.362260119	0.29438202
27	3426830	525.61024198	0.247981861
27	3429248	526.017685493	0.407443513
27	3430085	526.1179594	0.100273907
27	3431750	526.372608719	0.254649319
27	3431927	526.410759375	0.038150656
27	3435643	526.949223651	0.538464276
27	3436716	527.115799892	0.166576241
27	3442101	528.028336657	0.912536765
27	3446629	528.716221124	0.687884467
27	3453193	529.54336172	0.827140596
27	3454998	529.774319022	0.230957302
27	3456981	530.096444022	0.322125
27	3458670	530.408884777	0.312440755
27	3462003	530.907110866	0.498226089
27	3462629	531.009193927	0.102083061
27	3466812	531.644212814	0.635018887
27	3467603	531.783105728	0.138892914
27	3468723	531.95291715	0.169811422
27	3473248	532.599329497	0.646412347
27	3474754	532.827396849	0.228067352
27	3477252	533.310027095	0.482630246
27	3487595	534.66381062	1.353783525
27	3491913	535.322863869	0.659053249
27	3492293	535.346980975	0.024117106
27	3494200	535.548033558	0.201052583
27	3495385	535.7271869	0.179153342
27	3498662	536.148731294	0.421544394
27	3500148	536.374066117	0.225334823
27	3507584	537.493934074	1.119867957
27	3507805	537.530922291	0.036988217
27	3511166	538.067713112	0.536790821
27	3516197	538.757556306	0.689843194
27	3517676	538.999531053	0.241974747
27	3517851	539.032538708	0.033007655
27	3523619	539.900196842	0.867658134
27	3524323	540.029523435	0.129326593
27	3524891	540.129313101	0.099789666
27	3526733	540.429180832	0.299867731
27	3534051	541.425289052	0.99610822
27	3541395	542.3350078	0.909718748
27	3542640	542.527614286	0.192606486
27	3543410	542.669061958	0.141447672
27	3548492	543.460861876	0.791799918
27	3551826	543.932795437	0.471933561
27	3553037	544.08060281	0.147807373
27	3556019	544.528032814	0.447430004
27	3556758	544.643158143	0.115125329
27	3559912	545.156115206	0.512957063
27	3560018	545.175224896	0.01910969
27	3561422	545.418079032	0.242854136
27	3570056	546.895752961	1.477673929
27	3571818	547.177372979	0.281620018
27	3572499	547.302597603	0.125224624
27	3573382	547.45650986	0.153912257
27	3574021	547.529604744	0.073094884
27	3580596	548.624852499	1.095247755
27	3583478	548.964295447	0.339442948
27	3588078	549.579067647	0.6147722
27	3590880	549.953818979	0.374751332
27	3591475	550.034279053	0.080460074
27	3592668	550.192751596	0.158472543
27	3593134	550.248459613	0.055708017
27	3605663	552.35146183	2.103002217
27	3607153	552.637884882	0.286423052
27	3607802	552.757870696	0.119985814
27	3607813	552.761099555	0.003228859
27	3609134	553.015124764	0.254025209
27	3609763	553.133838317	0.118713553
27	3620773	554.669827089	1.535988772
27	3622120	554.858788984	0.188961895
27	3623170	554.997932447	0.139143463
27	3630839	556.21449499	1.216562543
27	3632469	556.441993387	0.227498397
27	3635093	556.784620689	0.342627302
27	3645701	558.455687719	1.67106703
27	3645977	558.497361707	0.041673988
27	3649043	558.879015946	0.381654239
27	3650951	559.200275332	0.321259386
27	3652244	559.440738836	0.240463504
27	3660334	560.74728501	1.306546174
27	3662426	561.046855756	0.299570746
27	3663258	561.216200576	0.16934482
27	3667688	562.089785197	0.873584621
27	3672842	562.732332285	0.642547088
27	3677265	563.422796551	0.690464266
27	3681496	563.812870404	0.390073853
27	3690326	565.252803398	1.439932994
27	3707042	568.198620006	2.945816608
27	3712260	568.891521053	0.692901047
27	3712820	568.947396395	0.055875342
27	3716210	569.420149295	0.4727529
27	3716880	569.52015376	0.100004465
27	3720677	569.977012875	0.456859115