version 2
run ChordDht-9-20211204-11:19:09-3224
attr Lifetime 1000s
attr configname ChordDht
attr datetime 20211204-11:19:09
attr experiment ChordDht
attr inifile configs.ini
attr iterationvars $Lifetime=1000s
attr iterationvars2 "$Lifetime=1000s, $repetition=0"
attr measurement $Lifetime=1000s
attr network oversim.underlay.simpleunderlay.SimpleUnderlayNetwork
attr processid 3224
attr repetition 0
attr replication #0
attr resultdir results
attr runnumber 9
attr seedset 9

vector 55  SimpleUnderlayNetwork.globalObserver.globalStatistics  "GlobalNodeList: Number of nodes"  ETV
vector 56  SimpleUnderlayNetwork.globalObserver.globalStatistics  "GlobalDhtTestMap: Number of stored DHT entries"  ETV
vector 57  SimpleUnderlayNetwork.globalObserver.globalStatistics  "LifetimeChurn: Session Time"  ETV
vector 58  SimpleUnderlayNetwork.globalObserver.globalStatistics  "LifetimeChurn: Time between creates"  ETV
vector 59  SimpleUnderlayNetwork.globalObserver.globalStatistics  "LifetimeChurn: Time between deletes"  ETV
55	1219208	200	1019
55	1607237	250	1035
55	2041406	300	1017
55	2453754	350	1020
55	2864145	400	1018
55	3287039	450	1015
55	3694702	500	1021
55	4141849	550	1016
55	4543317	600	1000
55	4973366	650	1003
55	5401123	700	1004
55	5799751	750	996
55	6223959	800	992
55	6622976	850	989
55	7040392	900	997
55	7444659	950	988
55	7847230	1000	1000
55	8282419	1050	1017
55	8689109	1100	1023
55	9111562	1150	1011
56	1219209	200	1536
56	1304689	210	1710
56	1389902	220	1888
56	1459069	230	2019
56	1523280	240	2151
56	1607238	250	2325
56	1698344	260	2514
56	1781443	270	2677
56	1871292	280	2855
56	1955704	290	2995
56	2041407	300	3140
56	2129510	310	3292
56	2216117	320	3488
56	2296793	330	3634
56	2380537	340	3818
56	2453755	350	3957
56	2521075	360	4114
56	2599802	370	4286
56	2688371	380	4464
56	2776435	390	4607
56	2864146	400	4782
56	2949684	410	4849
56	3034026	420	4876
56	3116000	430	4895
56	3203206	440	4873
56	3287040	450	4831
56	3371973	460	4858
56	3451607	470	4894
56	3516772	480	4907
56	3602252	490	4881
56	3694703	500	4870
56	3786936	510	4860
56	3879277	520	4868
56	3966233	530	4896
56	4054066	540	4916
56	4141850	550	4887
56	4231387	560	4892
56	4318787	570	4877
56	4402335	580	4869
56	4476995	590	4880
56	4543318	600	4892
56	4627977	610	4900
56	4714789	620	4876
56	4801285	630	4885
56	4887329	640	4867
56	4973367	650	4885
56	5061761	660	4888
56	5146360	670	4870
56	5235131	680	4856
56	5318258	690	4880
56	5401124	700	4874
56	5478270	710	4862
56	5549961	720	4871
56	5630411	730	4872
56	5716227	740	4853
56	5799752	750	4874
56	5886713	760	4852
56	5968101	770	4827
56	6055149	780	4847
56	6138044	790	4863
56	6223960	800	4860
56	6310887	810	4840
56	6394682	820	4812
56	6471896	830	4807
56	6544059	840	4825
56	6622977	850	4843
56	6707656	860	4808
56	6789610	870	4810
56	6871822	880	4797
56	6953128	890	4810
56	7040393	900	4812
56	7129329	910	4823
56	7205626	920	4815
56	7283339	930	4810
56	7364917	940	4791
56	7444660	950	4812
56	7513791	960	4799
56	7590964	970	4791
56	7674357	980	4810
56	7758708	990	4792
56	7847231	1000	4771
56	7934560	1010	4801
56	8025022	1020	4802
56	8110340	1030	4777
56	8195430	1040	4792
56	8282420	1050	4779
56	8365982	1060	4766
56	8447377	1070	4774
56	8523462	1080	4799
56	8603720	1090	4781
56	8689110	1100	4791
56	8770414	1110	4809
56	8853175	1120	4809
56	8941339	1130	4817
56	9028245	1140	4817
56	9111563	1150	4813
56	9193441	1160	4817
56	9273581	1170	4839
56	9353896	1180	4838
56	9422364	1190	4788
57	1220949	200.22123188	595.976850781
57	1221320	200.266486048	432.658005551
57	1235634	202.044023017	631.81030642
57	1248945	203.601540365	808.37758572
57	1255064	204.408039476	2191.431587055
57	1256956	204.624835938	418.084683971
57	1259007	204.84740435	2074.419760629
57	1261472	205.096673771	2585.498358648
57	1271108	206.122826277	950.283169781
57	1275329	206.573806329	2971.057628472
57	1282811	207.497212556	1057.476240624
57	1287038	207.908986566	1921.915396945
57	1297833	209.118234178	45.386709703
57	1309009	210.506631778	2930.184632931
57	1320268	211.859309319	418.307012545
57	1323626	212.281874854	250.94806467
57	1325899	212.567309599	2635.546722062
57	1330604	213.124514272	1333.950677078
57	1351917	215.759412096	1550.812462215
57	1352309	215.830015361	727.55072791
57	1359364	216.593279684	790.657367819
57	1359679	216.617209058	2690.462182866
57	1371751	217.932865687	1664.394880615
57	1376383	218.435752958	242.323791707
57	1379084	218.780052149	146.024623783
57	1379719	218.860804361	145.283582998
57	1387235	219.674397378	1683.168398711
57	1399891	221.005550053	680.084610187
57	1401528	221.213445822	150.349573021
57	1401714	221.237374041	1000.138194063
57	1406650	221.957184574	127.264571011
57	1412643	222.903824144	1776.363816718
57	1416742	223.493726454	806.491726192
57	1435086	226.367508974	1233.561691362
57	1435916	226.489086759	5.857084586
57	1436610	226.597310392	463.195153664
57	1440784	227.232145565	2521.74750577
57	1448658	228.470468478	2032.611548745
57	1468428	231.510336546	2883.697656293
57	1471188	231.951068402	254.884217574
57	1473331	232.257302248	33.389828335
57	1478518	233.250336619	1590.107503412
57	1481812	233.824309594	190.434188711
57	1485772	234.371271856	127.502778464
57	1505056	237.310684933	352.782922145
57	1505790	237.374505637	177.460649643
57	1510734	238.048154125	2024.380919288
57	1512929	238.423346097	679.809766456
57	1515981	238.959631414	49.009535464
57	1517484	239.164098402	3886.298572082
57	1518245	239.274024602	464.288925605
57	1518967	239.399321456	987.832704327
57	1519272	239.454403009	1370.238012991
57	1525570	240.362065095	2003.926991543
57	1531255	240.98754306	61.006678927
57	1538086	241.913498091	350.004714596
57	1545313	242.835466393	1114.33235086
57	1546948	243.052577096	45.67191452
57	1554727	244.000652043	426.378042235
57	1557053	244.282664401	1911.128526696
57	1568143	245.517390299	850.408945068
57	1575453	246.274764614	2848.09239943
57	1581379	246.961754218	21.20871561
57	1588026	247.74166486	382.341139704
57	1594400	248.571735194	137.763830626
57	1605919	249.847816398	2256.91763695
57	1621295	251.704218602	1843.653491987
57	1625470	252.197823261	70.943385861
57	1626276	252.290486637	837.101142377
57	1636935	253.500883053	3333.67521536
57	1638277	253.636572231	961.505083697
57	1638511	253.669814771	943.517415175
57	1650152	254.7906344	1483.572677669
57	1683415	258.175998318	753.726120505
57	1698433	260.012081479	1623.690577981
57	1708920	261.219251387	526.617308651
57	1714333	262.002007513	282.891475281
57	1715379	262.167614222	488.442045342
57	1732221	264.037582796	17.468166653
57	1737857	264.796057047	449.175291845
57	1761779	267.649046102	149.508157427
57	1786712	270.669055424	961.478277753
57	1794560	271.627853074	319.149977781
57	1805872	272.91928361	452.325140492
57	1807322	273.108660565	1712.819028438
57	1813268	273.692222224	95.598895341
57	1840482	276.66752929	161.351533686
57	1849974	277.747533876	499.289645199
57	1852900	278.073430214	403.049016726
57	1855981	278.39262384	65.662085726
57	1865312	279.473009496	243.677322892
57	1884809	281.650262171	224.441476705
57	1889631	282.164712013	1648.787540675
57	1900710	283.565806929	475.399634311
57	1911557	284.740851128	1015.741155566
57	1943445	288.592458055	2823.862920579
57	1950969	289.414003419	3913.91634681
57	1953539	289.76375068	379.522834688
57	1955474	289.97688538	1068.524774442
57	1970893	291.549370038	1498.362036984
57	1973901	291.951372153	1030.449983274
57	1977294	292.354801669	417.331991652
57	2000554	294.841495857	42.724249358
57	2003118	295.124857364	564.34871609
57	2006025	295.47650868	213.894543075
57	2050324	301.150550613	140.61016436
57	2053609	301.63407755	301.987993957
57	2058521	302.283825359	2467.716856827
57	2062741	302.804102613	328.59896811
57	2068907	303.496852109	3414.330766923
57	2069992	303.589467813	506.569715863
57	2071254	303.722156379	74.330615986
57	2071368	303.735926601	10.039895226
57	2081859	304.757319421	208.57872514
57	2085682	305.191623122	524.879324418
57	2086122	305.232033139	3943.026194928
57	2096364	306.246426931	419.231690653
57	2096677	306.263092797	2059.054109361
57	2097296	306.32462396	2127.733098088
57	2106676	307.39911213	172.73050384
57	2108631	307.588952555	235.345119074
57	2114304	308.246615843	624.845413222
57	2115096	308.327511024	1358.952360828
57	2132851	310.431414622	20.337294643
57	2138785	311.318130618	44.52683166
57	2142437	311.768235901	485.401639265
57	2143987	311.955164519	797.218222532
57	2146598	312.208466533	3202.292141478
57	2147731	312.334213926	515.526808233
57	2151898	312.773824874	256.123105909
57	2162547	313.770728099	485.695399354
57	2163026	313.812764087	763.358072617
57	2171367	314.764052011	994.476520385
57	2173608	315.015368007	277.291143509
57	2175377	315.179683293	1342.180647868
57	2180142	315.751557322	536.920864516
57	2181066	315.86204723	359.695153346
57	2183576	316.123904959	220.721279686
57	2189109	316.633532573	1392.056971743
57	2211728	319.396918569	712.263901844
57	2221710	320.749968308	1048.913606806
57	2224571	321.153559926	3348.009744837
57	2240869	322.797593337	239.580144565
57	2256845	324.870605243	1212.340566077
57	2269735	326.469653695	183.19977158
57	2270244	326.5368572	427.812291722
57	2271811	326.737881778	4149.455324324
57	2292397	329.361860992	87.638581315
57	2293113	329.452023585	83.635437768
57	2305812	331.161596635	1416.314827857
57	2315058	332.435355584	98.634891072
57	2315139	332.442337288	3251.963174849
57	2335688	334.912969251	560.224742148
57	2346359	336.229691083	129.252280714
57	2373056	339.063738932	1860.969322067
57	2389849	340.877895221	2326.009098961
57	2395004	341.515167665	165.684821898
57	2395477	341.569431358	1100.548841569
57	2402301	342.513336826	608.066489291
57	2420657	345.135224503	1346.52295184
57	2421056	345.204689462	1574.701005225
57	2421525	345.287705048	322.295830954
57	2424361	345.823470311	819.12843697
57	2429942	346.615210905	13.411544927
57	2436129	347.468837936	2568.055511941
57	2438441	347.88543377	1870.012295507
57	2444725	348.785506921	3639.255921935
57	2456215	350.383525864	1193.127811095
57	2459198	350.902382222	972.219774645
57	2465363	351.88979233	29.100346697
57	2468337	352.275731127	694.373266954
57	2489349	355.517741613	883.08418267
57	2500670	356.90393165	1636.502409434
57	2516320	359.370986784	1964.890983576
57	2517896	359.665827117	2021.821101773
57	2518400	359.740119018	101.783254359
57	2518495	359.754100993	279.501414992
57	2532889	361.585388786	3756.495006005
57	2546382	363.409010641	6.114299775
57	2552050	364.239408941	1278.519145812
57	2558688	365.169538602	2.167892027
57	2559451	365.292103687	206.188081595
57	2561744	365.605993604	733.539971189
57	2563948	365.916911131	294.883761804
57	2581134	367.646464535	1458.079528915
57	2588796	368.616654862	403.529846812
57	2590386	368.810831375	1791.221477161
57	2591545	368.955382208	235.586267072
57	2592713	369.111732262	679.004875192
57	2596646	369.599338088	846.026254952
57	2604043	370.557870988	1176.459136738
57	2610834	371.316124752	1059.330294092
57	2610892	371.320711283	206.713999103
57	2614551	371.662685148	1843.286889537
57	2616801	371.912484843	162.122693713
57	2627167	373.177475643	2730.304365181
57	2630250	373.491385814	9.60101841
57	2682166	379.187270553	2330.676986548
57	2686396	379.772913183	231.613087588
57	2689928	380.194349287	1489.98439419
57	2711298	382.580024778	416.111774843
57	2711913	382.651700706	273.955453407
57	2729287	384.718108665	131.72547723
57	2744372	386.322186968	1395.133748528
57	2758411	387.768166113	1591.636754572
57	2772101	389.49541078	3374.491779794
57	2775264	389.860201121	461.113653306
57	2777282	390.107809046	2837.935729624
57	2777670	390.16095662	1296.136501381
57	2799919	392.866586664	454.726776821
57	2819453	394.931729714	146.18720419
57	2838815	397.247536239	39.252561427
57	2847760	398.305371537	7.113473419
57	2848473	398.408273848	1402.85121475
57	2854676	399.010817604	1486.38381251
57	2861061	399.645888519	1551.587740961
57	2870089	400.578534837	1020.229800507
57	2882273	402.090560382	1097.428163537
57	2888005	402.750886102	281.706631711
57	2897323	403.972274872	1299.630300554
57	2900740	404.426032121	564.193358148
57	2912027	405.700062558	60.158419068
57	2913082	405.835843316	2648.492385809
57	2927791	407.408708687	7.890122617
57	2929619	407.606023588	1399.814171959
57	2932860	407.934176742	2568.941741415
57	2944448	409.353519715	1252.684694129
57	2965026	411.639860594	1423.734136945
57	2983995	414.150589415	161.291867394
57	2996217	415.587597501	845.084056514
57	2998398	415.815168557	296.481410579
57	3004254	416.505417879	222.554288519
57	3009870	417.010171836	426.404819191
57	3031645	419.636934651	750.667402515
57	3039229	420.658063636	2627.363704541
57	3057899	423.050867314	842.71897392
57	3064402	423.838794397	1021.481046363
57	3083799	426.106884177	219.497105306
57	3105189	428.845833803	982.333340779
57	3105284	428.85678679	66.308721486
57	3106437	428.997588752	1798.181941038
57	3110441	429.439976972	245.215693382
57	3116809	430.098771837	650.251996282
57	3128787	431.511939094	1971.346440134
57	3133340	432.101457781	1295.866904065
57	3147945	433.597193825	3139.681153014
57	3150059	433.834890524	4978.777123873
57	3157599	434.787405954	1433.486232503
57	3165711	435.727005229	920.332844914
57	3180340	437.219728458	1047.675828082
57	3186523	438.00401139	47.273364325
57	3187090	438.096917071	1262.125150346
57	3200452	439.717460536	1601.066533776
57	3205948	440.386088819	852.285134871
57	3207924	440.694085615	416.53511183
57	3210327	441.010249522	957.088060998
57	3217129	441.675185775	1822.219254497
57	3217569	441.725222168	175.144676729
57	3219666	441.960780497	435.389177703
57	3225082	442.42722569	985.861347696
57	3241890	444.454837094	396.493942562
57	3242112	444.486835254	1053.181115983
57	3249989	445.431368167	377.687512605
57	3260176	446.592205522	248.769006607
57	3272912	448.205254125	2252.173676013
57	3298978	451.494803588	598.22697532
57	3322169	454.405422584	1759.218975684
57	3327470	455.021086739	1186.095211035
57	3331883	455.703609069	1075.229981279
57	3336353	456.136136805	88.990991
57	3338646	456.395002347	1173.217734401
57	3339511	456.506891322	1367.683025347
57	3342877	456.871895548	1292.253796597
57	3355863	458.16930208	150.75659816
57	3367136	459.427944383	124.447179412
57	3374788	460.31909064	944.551657618
57	3376271	460.440086474	144.942242913
57	3387291	461.734182237	2297.644997349
57	3398992	463.391598406	106.569376409
57	3426845	466.66004537	25.419162174
57	3427041	466.680393916	47.923335024
57	3428803	466.919613527	968.85359001
57	3453464	470.30487675	3.710902065
57	3468360	472.621919792	775.84301257
57	3469969	472.858181061	1285.52655535
57	3471423	473.073910484	923.416306718
57	3491448	476.264905245	1022.303811485
57	3494091	476.662814774	1295.378032522
57	3508163	478.672165017	1123.363677123
57	3508685	478.758686594	1716.815781907
57	3510316	478.988780392	439.244424414
57	3521944	480.589510759	1035.470725891
57	3531240	481.953353837	809.234581044
57	3534410	482.326812917	35.090700897
57	3548221	483.791557163	2295.600003551
57	3560353	485.302661036	535.026666345
57	3571583	486.586438933	286.083613535
57	3572659	486.696679133	12.57804889
57	3577784	487.241782231	1237.474993785
57	3581709	487.723865649	157.578918622
57	3595392	489.356884304	1926.923125362
57	3611349	491.127937979	131.364909861
57	3616403	491.692895977	335.228725237
57	3621232	492.069570095	877.80979775
57	3623517	492.337531656	1563.511596594
57	3630384	492.945279224	545.246234107
57	3630641	492.975892736	1058.744686384
57	3638173	493.635916474	1038.347604963
57	3643398	494.078337231	775.423439456
57	3644496	494.208847378	685.151903685
57	3649625	494.816245452	1047.526905415
57	3653577	495.185063538	4504.737292132
57	3660277	495.93440031	1212.680075747
57	3666493	496.605774201	1575.191504757
57	3676652	497.738637874	1120.546774646
57	3678861	498.008719556	41.270971229
57	3684253	498.650261147	337.885703685
57	3688352	499.217114687	286.800826831
57	3698474	500.458210676	3521.588126118
57	3700003	500.64695944	39.64958164
57	3721484	503.236486702	419.977119653
57	3729058	504.115603926	2686.515766961
57	3732698	504.538916518	1900.658792799
57	3733079	504.580954963	1345.703376776
57	3734563	504.742347675	537.94671141
57	3738636	505.211134702	114.173170586
57	3753665	506.666566769	1220.099943748
57	3768187	508.287046018	625.329290067
57	3772290	508.647169317	2006.635830501
57	3774791	508.893785929	207.786562977
57	3777138	509.15911697	2042.395450128
57	3777467	509.198479503	1072.869631964
57	3780427	509.518036161	388.755094058
57	3791069	510.40999784	334.630323625
57	3809555	512.25124884	37.991422291
57	3820860	513.404845648	426.206471757
57	3822188	513.551728461	2114.785687657
57	3825524	513.834984941	3039.319766575
57	3837062	515.158763401	1162.546296733
57	3839119	515.453729292	1.012440422
57	3851243	516.768012901	2125.33352516
57	3866716	518.61014013	3322.575372352
57	3875550	519.672988874	2113.123031787
57	3876405	519.77485732	1630.876256005
57	3892465	521.603726036	2039.84126032
57	3893968	521.805324432	174.60817198
57	3907585	523.383264063	243.327509723
57	3910228	523.785617592	1946.838432476
57	3914547	524.289028526	1274.725748681
57	3914838	524.317576396	744.17236185
57	3922345	524.965219072	221.217656854
57	3950179	527.945674428	533.831039728
57	3953325	528.373740622	1838.477995083
57	3979032	531.300096531	662.928542178
57	3993326	532.897769897	917.349775143
57	3995102	533.135932784	1164.530735784
57	4006256	534.518817804	242.667000487
57	4015603	535.545280488	396.768494132
57	4031744	537.264723607	444.307847197
57	4045638	538.972318413	2287.766475612
57	4058396	540.57963593	3136.909014943
57	4099160	545.366009518	188.836239027
57	4099854	545.448174531	2395.770022713
57	4107451	546.204666578	2378.080203502
57	4110837	546.494140492	663.339303807
57	4116784	547.172705648	1848.158594898
57	4131845	548.733506336	748.667288432
57	4141853	550.000558093	97.502434851
57	4148673	550.883844152	2693.039130729
57	4151514	551.249607258	29.13056181
57	4151681	551.273270768	179.596615303
57	4178603	554.259471293	2198.524607454
57	4189860	555.613418476	513.27095789
57	4209907	557.617929038	1062.408910843
57	4212393	557.831248241	1.988637023
57	4226787	559.426743617	2702.838030467
57	4235271	560.593732695	1069.501130249
57	4238140	560.947223677	2518.559329283
57	4243438	561.583689298	1957.258948001
57	4256956	562.944468507	30.461250904
57	4277505	565.54278964	364.879925286
57	4297479	567.625681283	1781.043193735
57	4317399	569.77077803	332.439837021
57	4318411	569.946868933	816.426237987
57	4326200	570.872131587	127.185884815
57	4332529	571.551913831	1625.831039248
57	4344053	572.673466611	3051.666373157
57	4349270	573.31028564	557.198254746
57	4351979	573.688752562	94.853390518
57	4358080	574.459797155	3986.548100928
57	4385660	577.779885789	1316.677566685
57	4389391	578.265906702	1987.76422516
57	4397756	579.342327965	160.109828659
57	4428605	583.139770206	1067.523488083
57	4442949	585.213410868	1263.121817386
57	4457013	587.28483028	341.383445461
57	4457114	587.304374745	3697.849950363
57	4458973	587.581557653	4022.976842662
57	4460470	587.80976919	452.040197589
57	4467034	588.590302109	350.284464471
57	4480401	590.576544147	164.869795219
57	4481636	590.743655133	1336.02707745
57	4487957	591.547324832	7.773996461
57	4505613	594.334387891	1198.763380711
57	4520169	596.635071072	514.461566826
57	4522140	596.976985179	342.459055089
57	4523296	597.177919952	343.428001036
57	4529575	597.877735779	3042.81922946
57	4544541	600.232146972	416.799765037
57	4551862	601.113005267	1464.255782977
57	4552668	601.20075074	2066.129991325
57	4559349	601.897868738	25.83132197
57	4560446	602.038266537	53.753869406
57	4560631	602.064134648	460.457652176
57	4573082	603.903066395	59.376821272
57	4573679	603.992112807	87.804040668
57	4577913	604.586633129	408.992739458
57	4580059	604.914910448	1076.137095261
57	4581808	605.120979529	207.33370701
57	4584879	605.44824009	1943.800417764
57	4596170	606.543439825	754.464817259
57	4608505	607.951743737	868.672057112
57	4619269	609.224702357	257.045964836
57	4630153	610.23564139	1964.394534043
57	4635107	610.830724167	755.968722983
57	4640156	611.436529264	1542.915912545
57	4640853	611.509429455	123.596771828
57	4649181	612.472791739	1021.010222926
57	4665060	613.865811905	912.25283896
57	4675553	615.098137369	473.693261858
57	4678048	615.393363634	84.174479275
57	4683356	615.999475522	819.728219414
57	4689501	616.773637889	626.398046247
57	4699914	617.920476833	976.992764777
57	4714090	619.907538768	793.63348111
57	4717393	620.370651501	117.235451431
57	4759685	625.374260459	1616.420469833
57	4763482	625.881594099	31.626572009
57	4764558	626.015066899	282.09237063
57	4767954	626.406608263	2739.751311287
57	4794157	629.30141193	826.90343836
57	4795658	629.407947917	475.901507708
57	4799569	629.776229065	930.612372313
57	4804000	630.331878664	38.214210121
57	4810716	631.108538083	143.913151232
57	4810911	631.135564866	2591.565949932
57	4812193	631.285265933	930.525698783
57	4825922	633.070061198	1094.392065648
57	4827825	633.326790773	163.139998266
57	4837934	634.485587969	2774.346789539
57	4852657	636.130827596	24.06935489
57	4877390	638.801394383	1287.499514987
57	4881058	639.233160209	2141.23701591
57	4896542	641.064149061	1083.422500027
57	4897008	641.118056515	79.71526607
57	4912775	642.713972265	791.560741475
57	4913384	642.791804477	593.376873829
57	4916782	643.245166515	83.833778754
57	4919534	643.589276301	417.441380673
57	4932779	645.150557725	5072.977250191
57	4955523	647.724400965	498.631210803
57	4968924	649.390827579	360.693089703
57	4977279	650.496524749	3675.683832231
57	4984854	651.137649748	265.558091667
57	4988773	651.608488343	3399.678885871
57	4991511	651.969082748	1223.248478835
57	4994749	652.339016425	152.71140457
57	5004969	653.462552249	972.648001898
57	5015323	654.63216305	170.652372462
57	5043540	657.709946965	2997.804571481
57	5066243	660.657825224	1423.942273505
57	5066874	660.743542376	114.442580785
57	5077422	662.079154645	561.03524253
57	5084926	663.012438717	241.462239659
57	5089911	663.687405694	469.519216709
57	5091186	663.842856136	46.495090671
57	5092898	664.014802672	1909.625310398
57	5097906	664.498543175	554.198357859
57	5098954	664.605920823	130.095674995
57	5100244	664.748601804	1832.528227507
57	5104715	665.289662233	430.85535283
57	5122229	667.160070793	4569.740570573
57	5123050	667.262354927	1985.860856539
57	5125993	667.62339774	955.886805448
57	5127634	667.803952224	1507.632778128
57	5146267	669.99058208	776.820464641
57	5156817	671.116306675	110.482632095
57	5179506	673.449732692	390.373556345
57	5193839	675.228818875	617.977582037
57	5196310	675.593283184	2459.256317311
57	5205271	676.523880366	885.434659208
57	5223206	678.340575222	120.230553752
57	5236304	680.156757992	406.156459982
57	5244831	681.353777613	1154.513436286
57	5246269	681.520960397	1428.917640508
57	5252261	682.164306913	757.076750524
57	5278333	685.241317166	154.379031889
57	5310258	688.927587352	525.952627537
57	5316228	689.71262877	300.674674972
57	5317853	689.949125186	5066.680102552
57	5322754	690.571216199	358.7885219
57	5339392	692.450297597	1437.566145912
57	5342714	692.850117782	672.541677482
57	5345753	693.12862534	3787.632128151
57	5352092	694.101589121	2542.801771353
57	5358747	694.990393787	13.850624291
57	5378724	697.294772721	2658.970140677
57	5392169	698.794602518	419.103144394
57	5409628	700.847557727	1091.482758224
57	5410711	700.948399337	345.849147233
57	5414949	701.522942142	74.573187213
57	5415832	701.633901622	1370.473833083
57	5423714	702.653580595	416.542430551
57	5427919	703.326872077	136.988011373
57	5439860	704.830125702	1328.502373497
57	5442475	705.228674155	583.569652826
57	5443134	705.33152461	2449.504024326
57	5461937	707.728370668	285.791153744
57	5472828	709.21423032	1008.646526215
57	5474114	709.440878583	842.327585362
57	5504928	713.788782746	174.889575373
57	5506648	714.0683659	6734.661678556
57	5511807	714.766409455	55.625206196
57	5536491	717.977365761	2217.025217336
57	5551767	720.26687866	803.583772682
57	5557042	720.867027827	272.297931373
57	5562271	721.548133349	198.941691417
57	5579065	723.615740952	155.142325496
57	5586199	724.588132066	1630.251908607
57	5598127	726.275215127	263.338155969
57	5608838	727.448778629	804.891088662
57	5612727	727.966129455	129.237185757
57	5632129	730.208758785	223.558173534
57	5637876	730.858697949	85.889330713
57	5651803	732.319094445	1885.51318548
57	5655452	732.691700788	329.724532637
57	5671135	734.459343183	1983.258655312
57	5698441	737.488668856	162.522443219
57	5708047	738.800050497	2794.628310977
57	5711047	739.189706829	1578.350791536
57	5711207	739.205668435	622.226358493
57	5716766	740.102771347	704.502554825
57	5733951	742.2674444	382.560189147
57	5749214	744.198332235	855.382200957
57	5768155	746.501130168	22.532308961
57	5776478	747.505912378	346.258201802
57	5777376	747.590658218	2402.142588761
57	5786635	748.534329246	950.488112012
57	5800919	750.117160383	219.370365845
57	5835274	753.926373343	1085.802375857
57	5842304	754.75389013	1670.837359689
57	5844166	754.930140829	2316.971303136
57	5845357	755.024697854	132.267323592
57	5851469	755.838097921	2380.422146736
57	5857467	756.523830666	481.049987751
57	5866329	757.483889582	2011.910191065
57	5876426	758.800831472	320.631190519
57	5876780	758.855015639	541.987132715
57	5884674	759.72942898	267.261140287
57	5885421	759.834990805	1689.928856034
57	5936834	766.256243644	196.598451939
57	5940476	766.770726269	2619.839464877
57	5951882	768.128167045	3171.612994938
57	5976221	770.795981908	912.679036681
57	5982513	771.392548537	1166.723422276
57	5983773	771.522429064	465.869739483
57	5985089	771.675090226	1020.113162098
57	5985621	771.739363312	776.609693402
57	6015699	775.267322328	2909.874190074
57	6034210	777.384200304	267.223239836
57	6037509	777.77775185	1131.660951335
57	6055061	779.996069138	2056.837157457
57	6073680	782.298911427	283.154198502
57	6079651	783.045909606	2282.455890031
57	6085747	783.924128536	1844.488446929
57	6087459	784.103536374	1216.376798016
57	6088115	784.176326136	147.952264407
57	6088212	784.186494866	388.622790899
57	6090956	784.503327343	4005.557378248
57	6102207	785.843369957	1202.327219688
57	6114496	787.216160682	337.477333751
57	6118449	787.780026292	62.168508925
57	6121577	788.22081178	1033.001394962
57	6128134	788.837236662	2730.91569482
57	6139121	790.131976086	98.456166967
57	6152196	791.630978858	875.036031786
57	6155502	792.099939523	4120.47543807
57	6161067	792.751884792	674.10980512
57	6162668	792.961586125	5.470218782
57	6164691	793.232881741	469.33055876
57	6165847	793.363039725	30.329462293
57	6166954	793.445426633	3295.352681997
57	6188984	795.982601293	2002.116543764
57	6191578	796.239582482	583.826854783
57	6209076	798.20054446	932.645841675
57	6210863	798.406445759	538.816064748
57	6227257	800.465388776	8.855978145
57	6230492	800.854089029	2133.647634547
57	6234634	801.393961964	1375.061310285
57	6236755	801.642393804	314.613232491
57	6241113	802.057995617	174.321773855
57	6246426	802.622990058	1261.656098803
57	6257865	803.809433196	1354.120755763
57	6259107	803.898098763	580.172364709
57	6259342	803.916857007	1876.946218774
57	6266559	804.759287916	211.940813177
57	6272429	805.441438413	15.668364348
57	6275739	805.869023937	184.824499291
57	6280930	806.427406155	1346.724958872
57	6292108	807.696234773	1892.045511159
57	6318499	811.072925218	1550.244755368
57	6330334	812.379541368	286.108417504
57	6333965	812.710764689	416.77948789
57	6334003	812.713067805	544.9460942
57	6365395	816.61591474	543.469869283
57	6383695	818.731430913	775.345197232
57	6388165	819.259839151	863.19253097
57	6388879	819.353831002	995.533270301
57	6395216	820.074961456	257.914181869
57	6402483	820.772373156	370.544144868
57	6411542	821.991232311	1498.35404354
57	6411973	822.042734337	354.628171985
57	6417190	822.733286455	2258.555161196
57	6430330	824.392624635	311.585060098
57	6461222	828.598687746	492.097588736
57	6461916	828.691946461	173.193328733
57	6468463	829.551187926	935.931874577
57	6468780	829.590414102	383.046859145
57	6468838	829.594361116	39.709709094
57	6479256	830.837266628	758.827536421
57	6485098	831.590944343	1889.95375961
57	6487399	831.90286386	868.161445382
57	6499923	833.709727558	1044.733894921
57	6503191	834.083139882	763.48852712
57	6513227	835.522633423	134.107123127
57	6514262	835.676542985	253.401397877
57	6523551	837.072534572	839.517909917
57	6531921	838.228322345	928.183133257
57	6546856	840.381923381	264.145074474
57	6556564	841.578937411	644.590551239
57	6571897	843.553145723	303.087593711
57	6586907	845.872055268	37.637200393
57	6592888	846.466265215	2244.698896314
57	6592945	846.473026599	1247.448721774
57	6626418	850.443989434	432.326508246
57	6628151	850.646892343	683.880838237
57	6628788	850.746290615	824.038227168
57	6636484	851.734130722	6.58245217
57	6647391	852.992730875	664.851403612
57	6648524	853.123940469	678.727220161
57	6651144	853.370670617	756.694684552
57	6656783	853.864059177	514.087014901
57	6676661	856.110844596	1603.970847253
57	6692612	857.999902067	2028.367890593
57	6694306	858.227828304	583.138912547
57	6697056	858.637459009	1218.575596417
57	6702164	859.427108436	2276.046234704
57	6703466	859.544461173	762.573671782
57	6732634	863.168922228	1670.006396298
57	6734152	863.38084828	1218.233876481
57	6735894	863.589090006	818.711992981
57	6759136	866.625615684	56.069119259
57	6762372	867.05463687	1988.328892878
57	6762989	867.121701804	214.697610485
57	6767222	867.623546031	415.026594549
57	6771319	868.10408709	384.822972174
57	6788287	869.867150054	73.073535468
57	6809845	872.277028214	2109.842698997
57	6825520	874.315821501	1120.193884074
57	6839035	875.884655987	592.921223304
57	6851352	877.622869345	221.625419931
57	6852749	877.788819654	352.288676994
57	6866035	879.40121603	1441.885241706
57	6878865	880.999482466	565.214020356
57	6882704	881.413931852	1053.828192542
57	6892873	882.764746244	450.2241641
57	6894808	882.997966573	1052.347280065
57	6901070	883.631739868	1621.66082294
57	6913147	885.012564647	1105.359898111
57	6916722	885.390344507	6.271027781