version 2
run ChordDht-7-20211204-01:34:45-3224
attr Lifetime 800s
attr configname ChordDht
attr datetime 20211204-01:34:45
attr experiment ChordDht
attr inifile configs.ini
attr iterationvars $Lifetime=800s
attr iterationvars2 "$Lifetime=800s, $repetition=0"
attr measurement $Lifetime=800s
attr network oversim.underlay.simpleunderlay.SimpleUnderlayNetwork
attr processid 3224
attr repetition 0
attr replication #0
attr resultdir results
attr runnumber 7
attr seedset 7

vector 43  SimpleUnderlayNetwork.globalObserver.globalStatistics  "GlobalNodeList: Number of nodes"  ETV
vector 44  SimpleUnderlayNetwork.globalObserver.globalStatistics  "GlobalDhtTestMap: Number of stored DHT entries"  ETV
vector 45  SimpleUnderlayNetwork.globalObserver.globalStatistics  "LifetimeChurn: Session Time"  ETV
vector 46  SimpleUnderlayNetwork.globalObserver.globalStatistics  "LifetimeChurn: Time between creates"  ETV
vector 47  SimpleUnderlayNetwork.globalObserver.globalStatistics  "LifetimeChurn: Time between deletes"  ETV
43	1205210	200	1004
43	1573994	250	1004
43	1978815	300	1030
43	2376988	350	1038
43	2767299	400	1028
43	3166302	450	1008
43	3534274	500	1013
43	3940965	550	1021
43	4346514	600	1035
43	4758076	650	1037
43	5162729	700	1021
43	5550997	750	1027
43	5955941	800	1020
43	6324816	850	1023
43	6713694	900	1014
43	7086980	950	1012
43	7478628	1000	1019
43	7865390	1050	1007
43	8241730	1100	1014
43	8638466	1150	1024
44	1205211	200	1468
44	1288008	210	1661
44	1370713	220	1808
44	1437608	230	1947
44	1500536	240	2089
44	1573995	250	2235
44	1656099	260	2411
44	1734552	270	2588
44	1819235	280	2756
44	1896257	290	2899
44	1978816	300	3025
44	2056153	310	3191
44	2137217	320	3374
44	2223030	330	3569
44	2305660	340	3733
44	2376989	350	3872
44	2444816	360	4010
44	2518283	370	4177
44	2602436	380	4350
44	2684653	390	4526
44	2767300	400	4690
44	2846542	410	4758
44	2929140	420	4767
44	3006922	430	4792
44	3085118	440	4784
44	3166303	450	4781
44	3245119	460	4765
44	3312367	470	4794
44	3379811	480	4795
44	3452064	490	4800
44	3534275	500	4797
44	3619431	510	4781
44	3700280	520	4794
44	3776964	530	4790
44	3860838	540	4819
44	3940966	550	4834
44	4029117	560	4818
44	4108396	570	4812
44	4196141	580	4801
44	4273201	590	4817
44	4346515	600	4846
44	4425874	610	4849
44	4512365	620	4839
44	4597825	630	4823
44	4680209	640	4816
44	4758077	650	4832
44	4839842	660	4852
44	4919798	670	4841
44	5009199	680	4835
44	5084804	690	4832
44	5162730	700	4832
44	5238483	710	4844
44	5309122	720	4854
44	5389898	730	4837
44	5471406	740	4837
44	5550998	750	4838
44	5635771	760	4830
44	5713794	770	4837
44	5791074	780	4846
44	5867251	790	4851
44	5955942	800	4857
44	6033271	810	4849
44	6110688	820	4856
44	6177422	830	4871
44	6247833	840	4861
44	6324817	850	4862
44	6404955	860	4854
44	6485708	870	4858
44	6564212	880	4860
44	6635878	890	4858
44	6713695	900	4869
44	6787919	910	4850
44	6871676	920	4831
44	6941452	930	4824
44	7019786	940	4833
44	7086981	950	4837
44	7160563	960	4839
44	7238435	970	4853
44	7317823	980	4843
44	7395879	990	4834
44	7478629	1000	4825
44	7554647	1010	4831
44	7631839	1020	4829
44	7710317	1030	4845
44	7792999	1040	4829
44	7865391	1050	4823
44	7944726	1060	4831
44	8014419	1070	4812
44	8087303	1080	4823
44	8162643	1090	4831
44	8241731	1100	4821
44	8317328	1110	4818
44	8399953	1120	4806
44	8474449	1130	4815
44	8552627	1140	4834
44	8638467	1150	4814
44	8723021	1160	4828
44	8795966	1170	4826
44	8875315	1180	4825
44	8937507	1190	4772
45	1205331	200.01483411	344.071842651
45	1210612	200.642486595	281.170817944
45	1219716	201.847610553	677.96886828
45	1222938	202.265552206	2927.10439539
45	1227474	202.763529481	391.988061458
45	1229998	203.01966581	2382.95422214
45	1230524	203.077535038	228.397452201
45	1240626	204.138052128	23.873659528
45	1260826	206.505009246	615.741530409
45	1261502	206.597908767	116.065820909
45	1262231	206.682518225	481.659353459
45	1290221	210.278312472	1881.396563594
45	1292545	210.543595574	1064.886393759
45	1293229	210.610764776	21.432370249
45	1295835	210.91236071	134.268740991
45	1302919	211.749891257	219.195665703
45	1306491	212.21519419	118.330413306
45	1310034	212.583698023	1484.447408852
45	1313373	212.920306671	1333.056570787
45	1315800	213.161441746	1099.009107489
45	1322127	213.788721648	633.803468126
45	1323645	213.967197324	1233.754348354
45	1331120	214.759003461	523.031859856
45	1338714	215.74618738	1675.433892873
45	1344967	216.733355476	1015.145307844
45	1346854	216.95517339	1859.967696556
45	1358343	218.268117875	657.763829713
45	1358974	218.378315802	823.372257135
45	1363145	219.060316743	792.56906956
45	1379986	221.199788026	678.130722092
45	1384589	221.867093737	293.029920089
45	1407735	225.321974691	453.011165995
45	1410693	225.842809024	78.962282677
45	1411427	226.00467587	936.629380004
45	1411737	226.068056451	629.973174388
45	1415590	226.668394966	1605.74900734
45	1417321	226.909847423	2682.248759907
45	1423804	227.950568468	601.52713128
45	1425718	228.291561695	61.66699156
45	1425978	228.33272849	580.604150719
45	1427022	228.53335304	2186.843290141
45	1427072	228.542704862	154.842558306
45	1427387	228.608466208	76.241252495
45	1439479	230.316108686	1106.145815563
45	1443736	230.987224486	2915.997247888
45	1452448	232.620184279	2310.141150727
45	1452944	232.703254099	438.486324989
45	1454589	232.981633789	946.862725245
45	1458792	233.721598858	887.895486717
45	1471240	235.413475267	1648.765281193
45	1475913	236.220254419	569.014487541
45	1476060	236.246602071	640.260429455
45	1476230	236.273522386	1071.295992242
45	1479495	236.846726399	1781.123645359
45	1488214	238.083305426	783.119665749
45	1509185	241.225691268	578.04194318
45	1531291	244.236531616	181.116519486
45	1535333	244.782252964	528.202239986
45	1537173	245.058557715	501.47260687
45	1540802	245.610067176	691.878928367
45	1544214	245.98473212	133.281014834
45	1560161	248.080741225	761.739404228
45	1562123	248.358063545	171.245018411
45	1562617	248.428342591	421.952034741
45	1570887	249.522758928	1063.498069009
45	1572520	249.772149253	583.027462707
45	1579170	250.693618388	1458.944817993
45	1586895	251.775233528	2205.810390206
45	1589105	252.03176884	1226.925017265
45	1590282	252.159492873	691.721326749
45	1591300	252.267847523	11.907301655
45	1591616	252.30316271	4018.005208698
45	1598564	252.979507309	209.406557175
45	1599518	253.087060075	249.304069653
45	1607653	254.033196481	202.409961566
45	1615299	254.930721573	119.420596762
45	1617676	255.286506413	133.418987132
45	1621060	255.66409034	2314.885599254
45	1630092	256.866489176	1106.778400736
45	1635639	257.557167272	1510.237686304
45	1645205	258.688840825	1360.736013362
45	1650528	259.396928233	135.70584788
45	1651090	259.458568531	154.32389106
45	1652781	259.646327613	253.554898911
45	1666677	261.272505544	358.005894174
45	1669959	261.692634437	2105.651997482
45	1678963	262.799399646	1345.927872403
45	1684682	263.475514729	301.245205763
45	1685266	263.551472194	1145.317100911
45	1698010	265.165356912	1227.705096201
45	1698217	265.198195038	1432.292079154
45	1699120	265.348864633	644.947867978
45	1699715	265.451846216	1040.675076331
45	1703436	265.938678339	149.388943752
45	1711405	266.987794674	219.418961114
45	1717671	267.808364187	664.386307174
45	1723462	268.540172659	1060.300121344
45	1726684	268.954921377	61.092973297
45	1727637	269.097994276	1000.212190375
45	1728258	269.194582782	675.031238841
45	1729352	269.350636529	1969.50966081
45	1732729	269.767638228	296.664208182
45	1734473	269.991843587	249.383013074
45	1739334	270.639710912	84.956625801
45	1740015	270.72372362	334.622666348
45	1740571	270.783153423	1304.165948418
45	1740927	270.827044797	559.883771767
45	1744117	271.19865891	648.25761728
45	1744972	271.281169824	749.92406885
45	1750201	271.805313356	415.844489255
45	1756528	272.378602444	527.34116068
45	1761686	272.991501427	1302.138888158
45	1779613	275.152465347	170.374722505
45	1781204	275.326235278	1146.414499174
45	1791047	276.489099595	333.001560345
45	1792316	276.639763477	589.639472371
45	1794533	276.896974969	380.998754028
45	1796606	277.143051124	1754.647243098
45	1805902	278.356156117	1739.202047262
45	1816498	279.66501657	370.623893165
45	1819956	280.084972111	1095.833794092
45	1820561	280.16529587	1307.339414928
45	1834864	281.919827144	67.365164048
45	1840256	282.538532686	1826.907547543
45	1842663	282.825755927	531.250584169
45	1857447	284.777655587	1899.071614673
45	1857840	284.825522367	2547.385404302
45	1877237	287.473033905	152.766121859
45	1894107	289.72800745	1363.739240701
45	1894402	289.767311153	486.938788993
45	1894728	289.804214326	1795.169377709
45	1900261	290.570698704	1178.304326028
45	1900443	290.595775631	371.257807379
45	1910093	291.758589338	636.921146286
45	1917505	292.582067554	133.551053568
45	1919994	292.95386383	191.283556677
45	1936887	295.086079941	395.024577085
45	1950432	296.604205787	111.484155973
45	1956521	297.25941036	104.873162597
45	1962592	298.002425253	381.876059401
45	1963503	298.105811588	681.024849269
45	1964483	298.199553365	1446.015811381
45	1964679	298.220145048	915.63859627
45	1972912	299.276523715	247.284607518
45	1977946	299.899523399	1261.497349338
45	1984475	300.814388625	194.463387431
45	1996125	302.483995747	2404.483083598
45	2022790	305.595770421	95.528875574
45	2026728	306.214528515	381.552746337
45	2033192	307.050609376	140.98936564
45	2052436	309.539385922	1338.424236969
45	2052723	309.575432387	74.033944863
45	2054128	309.751100519	1574.731484175
45	2081359	313.3326249	877.352498494
45	2091843	314.624465962	146.629035966
45	2095140	315.054985985	1731.235932248
45	2098087	315.401375969	1753.407789227
45	2102237	315.861777611	4.526346216
45	2108026	316.627810735	1149.856554808
45	2113944	317.275634012	148.327026653
45	2119353	317.795195634	2023.637481425
45	2119779	317.822530213	388.208098918
45	2138941	320.203513074	718.801369918
45	2146379	321.149339203	903.988019759
45	2146525	321.169789028	921.815773124
45	2147045	321.238535972	2990.920472078
45	2147421	321.287673777	1168.474428134
45	2150872	321.68974851	11.718977801
45	2150922	321.693648666	733.684116881
45	2156166	322.316305123	475.796138638
45	2158638	322.610475684	2089.606114041
45	2173927	324.419860381	443.634267989
45	2182083	325.218258073	1941.874423306
45	2183145	325.373942024	1982.259339489
45	2188890	326.088070573	163.102810483
45	2196184	326.790590739	477.09256561
45	2204767	327.754600045	125.167604613
45	2215705	329.097692115	2738.661693264
45	2218377	329.465628097	1146.433576491
45	2221747	329.845129186	284.002020088
45	2227686	330.557721319	25.861618492
45	2234231	331.352321558	611.355173756
45	2247536	333.016871211	202.509886524
45	2247861	333.049567932	343.657104067
45	2248861	333.182133895	214.37163893
45	2248963	333.19385643	78.811484849
45	2250834	333.40513283	1292.104136262
45	2259264	334.212781823	961.911604816
45	2266083	334.919231909	93.162320006
45	2275019	335.981991478	1053.523536095
45	2297509	338.935209355	572.448491113
45	2302762	339.635276203	178.420358088
45	2303167	339.685986381	406.264077508
45	2304714	339.892922314	338.822058564
45	2305495	339.982790528	1842.126931676
45	2317176	341.270072934	921.998414837
45	2317493	341.314649395	1969.436238628
45	2321721	341.949041825	721.485788835
45	2339891	344.665833806	65.199973421
45	2347934	345.855573086	1187.551994675
45	2350228	346.218162258	142.792759774
45	2350427	346.248700407	107.572986272
45	2351166	346.38658404	670.813118855
45	2355875	347.074765736	700.886573194
45	2360263	347.713756131	968.09400744
45	2360515	347.7380739	1698.944647883
45	2364089	348.274851638	423.502811598
45	2364459	348.331811821	899.894532564
45	2366618	348.648125962	233.535077109
45	2368941	349.008934011	2505.378747035
45	2374425	349.761383439	584.130403051
45	2382300	350.635873485	897.768285502
45	2394984	352.656421072	1789.70302881
45	2398107	353.308139471	297.424558794
45	2402169	353.874042134	20.363475267
45	2404536	354.178622651	2487.720347203
45	2404659	354.194124793	1341.996039057
45	2405038	354.248520821	77.721486754
45	2411289	355.095760379	300.724674583
45	2434882	358.72166496	216.854986212
45	2442376	359.674886595	1147.213253205
45	2442823	359.747371948	339.948568631
45	2445748	360.124132211	282.624531931
45	2450033	360.641442244	140.790580255
45	2458049	361.878588179	686.571430884
45	2466459	363.010051234	471.306292941
45	2470516	363.547644295	236.726735784
45	2470805	363.590383738	54.40742939
45	2474474	364.042199659	394.322067181
45	2475571	364.170228929	1340.953614242
45	2478220	364.53180935	149.022858577
45	2491874	366.321832005	298.270581323
45	2503977	367.992072948	814.508882601
45	2505649	368.245293263	1959.16217734
45	2519710	370.212728262	2660.113434519
45	2541100	372.913417038	762.13515889
45	2543516	373.200275341	34.013250056
45	2544273	373.285865547	524.56595089
45	2551243	373.932858045	2383.87052855
45	2558036	374.690699186	987.308993864
45	2568603	375.858923986	648.700445267
45	2572714	376.347331558	549.284663012
45	2574400	376.585492716	441.857948904
45	2596963	379.336919404	190.921150364
45	2610512	380.979377853	1316.281409218
45	2615427	381.611198497	96.531640274
45	2620978	382.251834818	70.530308487
45	2623765	382.547427983	2250.920522645
45	2627464	383.066691589	8.726778572
45	2628911	383.244148908	305.888913593
45	2633347	383.806577107	357.394473346
45	2633890	383.889161591	367.637500726
45	2635059	384.034688765	1118.981944919
45	2636797	384.245545946	1940.118213211
45	2643583	384.829076918	185.763327979
45	2652356	385.991074886	688.484779267
45	2655878	386.491907661	144.045326597
45	2656468	386.573247476	2213.968128596
45	2659034	386.915799283	22.939982495
45	2677593	388.998907824	1527.22643577
45	2682531	389.676663416	503.531771614
45	2689667	390.805313561	200.022170112
45	2698039	391.935359098	109.04994889
45	2701115	392.288071936	291.159030029
45	2704197	392.668570132	848.159603882
45	2706733	393.010273786	5026.804273351
45	2727991	395.379642346	133.558160143
45	2729750	395.646683641	18.172893529
45	2737930	396.593864384	1591.125868855
45	2741844	397.033783071	1759.161386457
45	2747009	397.641987705	389.339483631
45	2760457	399.135817831	172.492231984
45	2778662	401.530556731	247.226018166
45	2782313	401.972066732	777.164606006
45	2785749	402.405996816	190.532206493
45	2792861	403.291370775	845.795179809
45	2793542	403.370228321	234.853585151
45	2798673	404.035247599	168.349813872
45	2823580	406.985445449	1326.507667795
45	2824016	407.044402545	401.834981559
45	2828083	407.563096848	1096.837885409
45	2829768	407.742973743	446.432286838
45	2830755	407.848235095	904.312467593
45	2832781	408.088155721	56.423833767
45	2840941	409.141727102	465.248556297
45	2843529	409.513596577	2433.191845941
45	2847279	410.121528911	914.707627525
45	2850333	410.702739984	423.226222702
45	2854811	411.276612609	1006.476546399
45	2855809	411.390572485	37.207238113
45	2863575	412.141772848	316.308220712
45	2866739	412.45640157	983.950959737
45	2874700	413.410510199	204.877413358
45	2881614	414.359769794	1617.831465781
45	2889117	415.282101106	155.983778848
45	2907893	417.555200043	197.229621399
45	2907923	417.557338687	854.902915927
45	2924246	419.443717018	223.408757912
45	2927653	419.827634752	12.143542873
45	2928250	419.889026221	1501.537445429
45	2936738	421.113255312	2077.354040618
45	2944492	422.089736264	51.834170289
45	2949702	422.717921193	401.280490357
45	2960033	424.002464206	586.309009574
45	2963862	424.433284858	619.368812096
45	2967971	424.865760504	2498.519540271
45	2968072	424.87557473	996.743917922
45	2974239	425.746124402	268.994651408
45	2983698	427.196013943	3044.756989634
45	2984414	427.291675569	3589.060028624
45	2984603	427.316922867	344.121254836
45	2999909	429.202719864	1176.507602551
45	2999971	429.206710775	831.05505569
45	3005111	429.772560841	59.106983788
45	3012300	430.728466267	92.150638989
45	3021759	431.962628911	964.738461866
45	3022624	432.06889036	2872.200410545
45	3026114	432.569335496	144.961137184
45	3028450	432.888461631	565.619276056
45	3047303	435.317856164	807.439228422
45	3062785	437.275860119	1861.791973934
45	3074446	438.705997681	74.912605833
45	3076713	438.994955761	215.437069435
45	3088035	440.276369364	1571.514848923
45	3097505	441.455733348	68.613009378
45	3124800	444.535241236	880.173050073
45	3126108	444.705858134	1254.723775092
45	3138688	446.299410115	787.671591347
45	3145219	447.081451172	843.607950995
45	3165775	449.923876108	239.222435054
45	3167167	450.140982211	430.704281776
45	3182855	452.050570128	77.468317255
45	3194641	453.552448308	425.907748805
45	3197421	453.857507336	48.379190047
45	3206368	454.814678404	1010.587084229
45	3208506	455.123348852	1309.492177627
45	3218174	456.604656004	194.645609136
45	3220544	456.894446706	7.566626132
45	3226586	457.51084657	759.530141756
45	3231749	458.215097594	166.647958486
45	3234012	458.525305378	596.319663738
45	3258930	462.087483265	1518.155580316
45	3275605	464.416706661	2629.322527708
45	3280025	465.317481214	596.187698709
45	3282319	465.702701784	284.349357088
45	3284790	466.094258214	296.979780678
45	3285968	466.277439892	301.454964362
45	3290413	466.924129741	552.150604149
45	3292122	467.14918355	35.849796738
45	3299252	468.230058436	149.26258405
45	3306144	469.187896751	1489.516832277
45	3308723	469.550319994	1079.939406235
45	3317716	470.740124123	148.755328238
45	3326878	472.102279126	58.413845575
45	3326893	472.102671196	145.915829334
45	3331712	472.927781127	33.204290831
45	3332039	472.98235413	1722.190652082
45	3333492	473.244152828	285.422075993
45	3335872	473.640338994	521.88537606
45	3344969	474.949465298	1154.187881584
45	3352667	476.130444851	511.516689119
45	3357594	476.866050436	390.743904812
45	3359497	477.196334846	3914.450126119
45	3360225	477.299779652	1097.784139439
45	3365457	478.017888773	173.742963842
45	3368246	478.405097419	502.473406904
45	3370062	478.679746563	22.375023793
45	3371256	478.858198328	1269.158313328
45	3372700	479.002565776	589.35416697
45	3378788	479.831134953	432.155561322
45	3379596	479.97586952	514.853666607
45	3384255	480.545439588	1351.862316897
45	3385588	480.766229842	567.861889788
45	3392759	481.926298974	673.42137256
45	3397629	482.564654409	279.287955425
45	3398767	482.749746657	587.069560097
45	3405573	483.643928545	321.384768747
45	3413781	484.792041335	3121.92354034
45	3418909	485.621656008	279.224604838
45	3419128	485.650643202	76.116600651
45	3421095	485.969044736	1255.385987541
45	3425949	486.657245244	133.348517953
45	3427373	486.848341079	318.099445861
45	3433408	487.591913124	235.089715993
45	3433727	487.625568234	214.654257412
45	3436626	487.972481012	1098.316661459
45	3441893	488.682876538	521.107764863
45	3448573	489.457455183	1718.968681877
45	3449964	489.653390879	363.208780482
45	3451160	489.853142078	84.673877219
45	3467301	492.026428518	1474.251069319
45	3470751	492.406203882	795.716008178
45	3471251	492.461698807	210.540708928
45	3471411	492.477173454	624.455227324
45	3474185	492.812546346	1908.497665158
45	3492381	494.80238155	145.648363121
45	3492774	494.835592161	92.807904099
45	3512488	497.340519698	532.711145532
45	3515524	497.766101195	1563.18003595
45	3518794	498.197648152	1801.609062552
45	3526765	499.105793853	1853.175480554
45	3533211	499.891861882	284.638748395
45	3533298	499.900759992	229.791997976
45	3536144	500.177395442	282.437893003
45	3539381	500.558971124	1048.636041994
45	3540825	500.712457759	1414.768874889
45	3546237	501.330521468	501.880609705
45	3549967	501.794941989	1620.583220522
45	3556794	502.620131382	922.343942419
45	3575101	504.906403051	313.754263454
45	3577645	505.152465669	114.508070636
45	3578005	505.183179502	193.680462211
45	3581147	505.574017583	1195.041483974
45	3581360	505.6023026	456.754085382
45	3587786	506.356003924	1638.486773878
45	3596178	507.192822173	253.518699749
45	3601905	507.925930213	2770.496773749
45	3606235	508.371804779	891.97153201
45	3612433	509.112511104	1917.802056697
45	3612502	509.121027938	979.412581848
45	3625870	510.948370706	1484.461746415
45	3628151	511.168325699	177.358212368
45	3636611	512.057908706	926.010719378
45	3648568	513.540116295	748.727040596
45	3665262	515.611779492	2557.489922763
45	3676643	517.051487769	130.63482209
45	3682290	517.886450471	884.230790853
45	3684195	518.176190882	156.117166552
45	3687497	518.563748275	462.965390699
45	3695800	519.599598594	139.478002035
45	3696309	519.637717241	664.100534298
45	3721511	522.692151901	928.357970671
45	3722614	522.868653934	1060.555954896
45	3729565	523.738949253	99.960887259
45	3732560	524.261454192	1808.624278225
45	3736218	524.756272256	997.298794366
45	3744782	525.847760932	692.477352245
45	3748616	526.410798568	1044.39437544
45	3748917	526.447947978	101.788917859
45	3754590	527.141240305	1417.693391964
45	3767893	528.758837822	239.950317084
45	3799610	532.612106895	332.901341791
45	3810212	533.847361529	1778.000061099
45	3816244	534.735863312	3476.045918782
45	3817561	534.904925981	1216.499198857
45	3832584	536.694504071	247.287987726
45	3837113	537.116088873	247.853021082
45	3842280	537.769931408	238.024910786
45	3842638	537.817150841	2126.05406627
45	3845881	538.1856135	131.996766888
45	3845988	538.196461087	5.215630759
45	3852580	538.999788626	849.716660282
45	3856641	539.470166758	45.792207415
45	3868982	540.893343706	303.545269171
45	3872183	541.365791568	10.01709167
45	3872705	541.43543829	743.726102337
45	3897233	544.47643681	1575.560975426
45	3899604	544.796849315	236.893443688
45	3901100	545.026102793	245.757971568
45	3903145	545.374375495	2552.391442462
45	3910229	546.480312625	514.320275906
45	3915053	547.076284002	637.146857781
45	3916099	547.222424423	1304.195254706
45	3916490	547.267278359	152.334272452
45	3919766	547.635919014	1862.394071868
45	3924904	548.195003098	955.660495157
45	3932244	549.110454035	108.035585192
45	3940808	549.986659386	1698.691399776
45	3942802	550.206606736	118.705445868
45	3956540	552.061965476	617.096302045
45	3957814	552.261559124	2315.69816933
45	3968067	553.562697732	368.094433758
45	3970530	553.823999027	23.189519402
45	3978609	554.705246677	1081.179203399
45	3985113	555.300985082	770.256738038
45	3992563	556.1222982	752.02965139
45	3993274	556.247439857	697.247131319
45	3993753	556.327332417	380.695388403
45	3994804	556.453098029	491.251327162
45	4011050	557.928331588	123.046205642
45	4016054	558.48254367	1311.191714255
45	4017245	558.616333549	891.586975816
45	4029605	560.065004868	194.916964191
45	4033165	560.561283046	1377.446359195
45	4035832	560.926650399	251.700724492
45	4038125	561.260830304	292.145088077
45	4039211	561.428676472	36.251112073
45	4052644	562.913975221	2710.145543532
45	4064742	564.595917028	1068.999012233
45	4069142	565.226450394	327.381733887
45	4073277	565.762204398	437.698040494
45	4085613	567.151684632	364.641756893
45	4090033	567.710641964	710.852063605
45	4091274	567.874838042	534.049810888
45	4096307	568.605347864	249.759714315
45	4098444	568.905469274	377.369714675
45	4116851	571.089450785	615.814066487
45	4118260	571.279268071	5.745176907
45	4122767	571.944921393	106.399502011
45	4130085	572.73378505	1.519301233
45	4132028	572.926453614	80.998542715
45	4146947	574.429106109	79.158686421
45	4149236	574.681545767	1081.450438375
45	4150204	574.79261382	448.333447807
45	4156396	575.532665719	1544.512336274
45	4156470	575.540674384	238.675885917
45	4161099	576.070945193	172.542612052
45	4177422	577.954915707	4437.817741732
45	4179593	578.254637878	2295.417657484
45	4188192	579.230213146	582.977685774
45	4197071	580.080226966	694.163746008
45	4204758	580.853813159	327.287117944
45	4209197	581.40906042	1875.949090871
45	4211186	581.612716459	1410.334950742
45	4217419	582.415494542	69.761637645
45	4222055	582.943313198	169.917577449
45	4235579	584.861636812	473.671597523
45	4241871	585.92747384	997.383003858
45	4243072	586.129661859	236.439535973
45	4249139	586.875084531	2167.422611832
45	4257386	587.76940905	68.73425556
45	4262433	588.476447896	59.873295238
45	4265731	588.972295509	967.93862127
45	4273937	590.110459287	679.900130516
45	4284783	591.638193128	753.835857914
45	4286555	591.857679311	2111.887864692
45	4296665	593.330589522	843.564935142
45	4303066	594.295900121	137.425024533
45	4313639	595.670083765	814.153972209
45	4315095	595.886154698	2171.750592519
45	4318214	596.313811086	1992.494091716
45	4326840	597.508693515	1471.56521733
45	4326860	597.50958721	256.641527946
45	4327480	597.608702075	398.066364983
45	4338622	599.068449862	1112.156220476
45	4345359	599.836539829	148.021090509
45	4346623	600.014055169	637.669878308
45	4352442	600.634827388	273.662195282
45	4352560	600.648703141	10.646438356
45	4353131	600.725892857	5549.507186607
45	4358324	601.519819721	687.47315593
45	4358373	601.525324113	174.471605836
45	4372591	603.413741009	169.457262882
45	4401642	607.111538556	1644.779141792
45	4409606	608.134424192	1023.912120882
45	4424832	609.877004864	211.965171953
45	4430287	610.530805122	283.718093015
45	4431619	610.724865355	1272.231083992
45	4435050	611.190533245	577.675768612
45	4449362	612.629328149	788.672147091
45	4450058	612.680587375	52.020340658
45	4485342	616.698547334	397.984249007
45	4493170	617.864303212	439.69087055
45	4499673	618.681122691	745.726986626
45	4499822	618.708880802	486.473321438
45	4503497	619.127799144	811.748406899
45	4503723	619.152907091	2416.812936712
45	4510637	619.869302702	189.273461996
45	4517367	620.655061851	1582.382864047
45	4521052	621.141656127	56.329661099
45	4529139	622.102788991	148.745398619
45	4534839	622.741332922	813.570319473
45	4535846	622.868339772	5.71361303
45	4541048	623.501915258	192.625315193
45	4550211	624.592881382	308.576234172
45	4566529	626.453189962	312.764960545
45	4567469	626.55844349	86.69971919
45	4568129	626.638141545	123.174726006
45	4582158	628.144968814	24.616983461
45	4584773	628.40453236	357.500885678
45	4589774	628.966042137	130.839367037
45	4612052	631.705061111	1062.431866906
45	4616670	632.153636992	1283.14237228
45	4619816	632.543510503	28.723541636
45	4621373	632.767707693	4256.234970203
45	4621539	632.789082816	653.631887996
45	4623173	632.987184504	1024.961473349
45	4625397	633.321942207	410.078301412
45	4636512	634.373803358	5242.938195983
45	4640898	634.867354186	542.885020766
45	4662587	637.925913387	1241.378641801
45	4671539	638.984279972	2131.854843917
45	4676393	639.515003537	702.001144487
45	4686228	640.865253464	257.128436489
45	4687855	641.0582224	1604.924177393
45	4690930	641.479518815	1318.335538596
45	4696593	642.202592213	1633.994851513
45	4720518	645.17347582	606.023153478
45	4721805	645.348701504	1100.477404462
45	4738378	647.508877841	868.029922716
45	4744506	648.274036684	628.801962214
45	4756072	649.673117448	1740.975925676
45	4757214	649.875629537	132.941179408
45	4758938	650.138670497	1015.26255373
45	4763549	650.782201361	1293.113181337
45	4767838	651.157399326	657.578127016
45	4774203	651.865175226	276.927839815
45	4784205	653.19016147	315.761735516
45	4793412	654.19710626	146.23510845
45	4807527	656.040282287	10.381993773
45	4807868	656.095729676	526.213699433
45	4811644	656.725109705	63.680753775
45	4821983	658.086040306	185.797110716
45	4822734	658.169976778	19.653518208
45	4823525	658.261777063	1848.576575617
45	4829643	658.990701733	236.896738448
45	4831810	659.267037437	512.979263349
45	4833706	659.503917159	639.787621168
45	4846654	660.871138518	439.062998742
45	4846886	660.896958269	1559.342069561
45	4848506	661.094904926	237.028780199
45	4861051	662.75124188	43.864148599
45	4863490	662.991382169	227.167456258
45	4881060	665.237297384	1616.856921734
45	4882555	665.479732662	1402.682198721
45	4883400	665.623478743	38.198503191
45	4887741	666.31228316	505.22640913
45	4889008	666.493794761	1047.77415012
45	4891788	666.93841809	1924.292574981
45	4893056	667.146355572	301.73593996
45	4894348	667.343882646	420.056321566
45	4895040	667.441300247	295.25444801
45	4902817	668.352434973	417.194807102
45	4905063	668.61948004	1144.593236357
45	4908428	668.958408851	349.998347726
45	4909230	669.028726237	477.300681065
45	4916112	669.569553077	522.382728795
45	4929076	670.941351851	17.849301459
45	4929600	671.004309456	461.836227567
45	4940771	672.305990964	1201.49193074
45	4944132	672.736869133	1227.057073743
45	4946713	673.06423527	1269.636258684
45	4962436	674.990575949	1280.617904716
45	4967657	675.604726079	432.170201173
45	4978959	676.715395634	3204.146980236
45	4984592	677.289031884	317.525558521
45	4989762	677.780450232	868.485540304
45	4992631	678.163318619	2042.65909196
45	4993621	678.302733774	177.217337898
45	4997580	678.80008177	805.184511507
45	4997653	678.81431685	1755.215423985
45	4999076	678.998703968	108.617567337
45	5009357	680.021451853	711.517898176
45	5019483	681.284277015	579.242604851
45	5033387	682.849775046	55.955683301
45	5062149	686.953780023	1156.054252108
45	5072370	688.458864405	1593.309530969
45	5094870	691.390588153	1236.359049632
45	5095820	691.505540158	1275.447761027
45	5105974	692.883285465	476.563489279
45	5113457	693.821327164	293.438346421
45	5122143	694.918506976	262.700459016
45	5122369	694.939513003	1786.944955768
45	5126281	695.453801361	926.928016773
45	5131456	695.986954727	762.106301006
45	5146593	697.938610324	498.826797533
45	5146651	697.945337907	2370.42695182
45	5148140	698.171123325	492.524277293
45	5151233	698.567470171	681.772480672
45	5155424	699.184127843	467.730037366
45	5160589	699.728459724	161.082944502
45	5164473	700.168793625	3439.467300131
45	5184076	702.825216082	1535.799073301
45	5192351	703.712417843	2158.42886669
45	5212854	706.881301873	909.684981694
45	5222609	708.016220497	50.214844367
45	5225040	708.383307861	112.431585544
45	5225959	708.523814021	90.862300401
45	5226124	708.554511179	1207.791488381
45	5226535	708.626524601	247.391283786
45	5228743	708.950314203	25.113876598
45	5231887	709.392560076	175.268043747
45	5234156	709.577366353	503.115187634
45	5235224	709.690715758	994.665035034
45	5238726	710.036029261	1063.505359339
45	5239179	710.08741367	383.221977807
45	5249464	711.580117956	82.965427626
45	5251732	711.906409615	1098.36473163
45	5252139	711.982167363	346.283659505
45	5254241	712.384121074	702.013784683