version 2
run ChordDht-0-20211203-23:45:45-3224
attr Lifetime 100s
attr configname ChordDht
attr datetime 20211203-23:45:45
attr experiment ChordDht
attr inifile configs.ini
attr iterationvars $Lifetime=100s
attr iterationvars2 "$Lifetime=100s, $repetition=0"
attr measurement $Lifetime=100s
attr network oversim.underlay.simpleunderlay.SimpleUnderlayNetwork
attr processid 3224
attr repetition 0
attr replication #0
attr resultdir results
attr runnumber 0
attr seedset 0

vector 1  SimpleUnderlayNetwork.globalObserver.globalStatistics  "GlobalNodeList: Number of nodes"  ETV
vector 2  SimpleUnderlayNetwork.globalObserver.globalStatistics  "GlobalDhtTestMap: Number of stored DHT entries"  ETV
vector 3  SimpleUnderlayNetwork.globalObserver.globalStatistics  "LifetimeChurn: Time between deletes"  ETV
vector 4  SimpleUnderlayNetwork.globalObserver.globalStatistics  "LifetimeChurn: Session Time"  ETV
vector 5  SimpleUnderlayNetwork.globalObserver.globalStatistics  "LifetimeChurn: Time between creates"  ETV
1	937529	200	1067
1	1091217	250	1087
1	1222739	300	1051
1	1345465	350	1071
1	1459047	400	1040
1	1570643	450	1080
1	1679395	500	1073
1	1799084	550	1113
1	1912199	600	1090
1	2022766	650	1052
1	2121706	700	1058
1	2218378	750	1089
1	2318867	800	1127
1	2421507	850	1095
1	2518875	900	1116
1	2613049	950	1103
1	2697816	1000	1107
1	2785525	1050	1098
1	2867882	1100	1094
1	2950916	1150	1124
2	937530	200	1020
2	971392	210	1150
2	1003880	220	1266
2	1034265	230	1391
2	1062846	240	1492
2	1091218	250	1603
2	1117764	260	1722
2	1147104	270	1839
2	1173587	280	1970
2	1199116	290	2078
2	1222740	300	2184
2	1246943	310	2289
2	1271273	320	2402
2	1298199	330	2524
2	1323231	340	2641
2	1345466	350	2743
2	1367736	360	2839
2	1389548	370	2955
2	1411430	380	3094
2	1436586	390	3212
2	1459048	400	3317
2	1482897	410	3356
2	1504644	420	3373
2	1525832	430	3389
2	1547366	440	3390
2	1570644	450	3388
2	1592504	460	3365
2	1614552	470	3373
2	1635773	480	3383
2	1658140	490	3401
2	1679396	500	3400
2	1702776	510	3400
2	1727435	520	3390
2	1752249	530	3363
2	1776273	540	3370
2	1799085	550	3384
2	1822320	560	3378
2	1844634	570	3384
2	1867964	580	3357
2	1888859	590	3353
2	1912200	600	3366
2	1935541	610	3367
2	1956507	620	3367
2	1978179	630	3353
2	1999990	640	3341
2	2022767	650	3366
2	2043449	660	3389
2	2063633	670	3389
2	2085218	680	3345
2	2103755	690	3335
2	2121707	700	3339
2	2143204	710	3336
2	2163647	720	3354
2	2181803	730	3350
2	2199538	740	3337
2	2218379	750	3348
2	2237795	760	3366
2	2257274	770	3385
2	2276012	780	3401
2	2296552	790	3386
2	2318868	800	3387
2	2339444	810	3372
2	2360655	820	3372
2	2380840	830	3385
2	2401524	840	3393
2	2421508	850	3401
2	2440876	860	3400
2	2460181	870	3381
2	2481125	880	3404
2	2500697	890	3410
2	2518876	900	3414
2	2537986	910	3431
2	2556047	920	3433
2	2574846	930	3442
2	2594445	940	3460
2	2613050	950	3447
2	2631095	960	3458
2	2647034	970	3463
2	2662110	980	3470
2	2679436	990	3498
2	2697817	1000	3497
2	2716091	1010	3515
2	2733364	1020	3500
2	2750715	1030	3498
2	2768482	1040	3509
2	2785526	1050	3517
2	2802325	1060	3523
2	2819010	1070	3504
2	2835914	1080	3490
2	2852027	1090	3480
2	2867883	1100	3465
2	2882761	1110	3454
2	2898902	1120	3460
2	2917227	1130	3498
2	2934860	1140	3494
2	2950917	1150	3474
2	2966662	1160	3466
2	2983979	1170	3472
2	3000468	1180	3466
2	3016302	1190	3418
3	937640	200.032825845	0.033799341
3	938607	200.354475138	0.321649293
3	938675	200.376548915	0.022073777
3	939063	200.498920158	0.122371243
3	939439	200.616424639	0.117504481
3	940064	200.765310246	0.148885607
3	940204	200.801354048	0.036043802
3	940774	200.969971919	0.168617871
3	940796	200.97489609	0.004924171
3	940797	200.976091206	0.001195116
3	940951	201.014838062	0.038746856
3	941006	201.036504355	0.021666293
3	941249	201.109563425	0.07305907
3	941712	201.243314954	0.133751529
3	941779	201.269938616	0.026623662
3	941985	201.313701348	0.043762732
3	942381	201.399638688	0.08593734
3	943154	201.566999227	0.167360539
3	943235	201.589269009	0.022269782
3	943611	201.680637607	0.091368598
3	943906	201.750103243	0.069465636
3	944287	201.886534598	0.136431355
3	945019	202.095047615	0.208513017
3	945260	202.147395889	0.052348274
3	945915	202.326192445	0.178796556
3	946213	202.398452624	0.072260179
3	946688	202.506092364	0.10763974
3	946890	202.560131788	0.054039424
3	946909	202.563957847	0.003826059
3	947967	202.824007273	0.260049426
3	948065	202.852410441	0.028403168
3	948148	202.877132354	0.024721913
3	948348	202.924752559	0.047620205
3	948577	202.990520995	0.065768436
3	949115	203.156860396	0.166339401
3	949382	203.231437914	0.074577518
3	949490	203.263899876	0.032461962
3	949990	203.404217627	0.140317751
3	950323	203.511010012	0.106792385
3	950431	203.550984018	0.039974006
3	950822	203.69892483	0.147940812
3	950909	203.734389609	0.035464779
3	951328	203.873077006	0.138687397
3	951359	203.876623382	0.003546376
3	952372	204.19048938	0.313865998
3	952399	204.194767628	0.004278248
3	952760	204.317127271	0.122359643
3	952854	204.333210137	0.016082866
3	953185	204.457864467	0.12465433
3	953277	204.479184784	0.021320317
3	953364	204.500450782	0.021265998
3	954009	204.657044116	0.156593334
3	954331	204.728047454	0.071003338
3	955882	205.148345135	0.420297681
3	955935	205.175947625	0.02760249
3	956192	205.265786274	0.089838649
3	956215	205.271039911	0.005253637
3	956254	205.288939912	0.017900001
3	956337	205.301071182	0.01213127
3	956509	205.339950518	0.038879336
3	957264	205.576642072	0.236691554
3	958020	205.782641335	0.205999263
3	959171	206.100091351	0.317450016
3	960732	206.549031357	0.448940006
3	961064	206.662943056	0.113911699
3	961375	206.732815158	0.069872102
3	962163	206.974352665	0.241537507
3	962459	207.033819266	0.059466601
3	962680	207.077402029	0.043582763
3	962795	207.09905796	0.021655931
3	963583	207.28303715	0.18397919
3	964005	207.399393551	0.116356401
3	964172	207.453211166	0.053817615
3	964312	207.490960962	0.037749796
3	964552	207.56436912	0.073408158
3	964818	207.65713016	0.09276104
3	964910	207.679339035	0.022208875
3	965357	207.786094645	0.10675561
3	965916	207.950507504	0.164412859
3	966206	208.038787807	0.088280303
3	966253	208.044874347	0.00608654
3	966682	208.182940729	0.138066382
3	966710	208.194505977	0.011565248
3	967160	208.373591821	0.179085844
3	968120	208.754035082	0.380443261
3	968429	208.885308104	0.131273022
3	968979	209.119795407	0.234487303
3	968999	209.134911702	0.015116295
3	969070	209.160833489	0.025921787
3	969166	209.197738014	0.036904525
3	969474	209.310838157	0.113100143
3	969925	209.443251023	0.132412866
3	971467	210.034534949	0.591283926
3	971729	210.154975392	0.120440443
3	971884	210.239829291	0.084853899
3	972536	210.49001296	0.250183669
3	972660	210.517508945	0.027495985
3	972696	210.527708038	0.010199093
3	972737	210.53674424	0.009036202
3	972799	210.566406432	0.029662192
3	973306	210.753373854	0.186967422
3	973610	210.855817238	0.102443384
3	973668	210.883614262	0.027797024
3	973927	210.972646107	0.089031845
3	974077	211.023214622	0.050568515
3	974392	211.131867172	0.10865255
3	974416	211.142229036	0.010361864
3	974451	211.157452066	0.01522303
3	974748	211.286381161	0.128929095
3	975065	211.379826039	0.093444878
3	975595	211.504192305	0.124366266
3	976026	211.630464448	0.126272143
3	976047	211.633055721	0.002591273
3	977186	211.969734141	0.33667842
3	977386	212.014408873	0.044674732
3	977864	212.12659053	0.112181657
3	978346	212.28046478	0.15387425
3	978984	212.476407928	0.195943148
3	979237	212.561519917	0.085111989
3	979549	212.678255067	0.11673515
3	980740	213.076374814	0.398119747
3	980843	213.11301644	0.036641626
3	981084	213.199347322	0.086330882
3	981183	213.241306038	0.041958716
3	981481	213.327697254	0.086391216
3	981720	213.399503939	0.071806685
3	981872	213.442738133	0.043234194
3	981873	213.444065	0.001326867
3	982114	213.513520374	0.069455374
3	982223	213.54863006	0.035109686
3	982507	213.642689811	0.094059751
3	982857	213.745450673	0.102760862
3	983527	213.955067024	0.209616351
3	983833	214.056415411	0.101348387
3	984261	214.224110519	0.167695108
3	984608	214.340408751	0.116298232
3	985548	214.641901104	0.301492353
3	985559	214.647781541	0.005880437
3	985757	214.688058425	0.040276884
3	985780	214.699639862	0.011581437
3	986151	214.821764695	0.122124833
3	986587	214.940372254	0.118607559
3	987291	215.120259536	0.179887282
3	987361	215.137381852	0.017122316
3	987919	215.275772707	0.138390855
3	988709	215.47359131	0.197818603
3	988842	215.489064177	0.015472867
3	989744	215.688216249	0.199152072
3	990545	215.945619855	0.257403606
3	990953	216.087840335	0.14222048
3	991714	216.330962886	0.243122551
3	991876	216.371934642	0.040971756
3	992183	216.429324037	0.057389395
3	992308	216.459962204	0.030638167
3	992888	216.584517607	0.124555403
3	993200	216.694494976	0.109977369
3	993372	216.730646044	0.036151068
3	994232	217.015448899	0.284802855
3	994402	217.067355708	0.051906809
3	994494	217.089573212	0.022217504
3	994710	217.151105525	0.061532313
3	995180	217.304014457	0.152908932
3	995592	217.417996003	0.113981546
3	995808	217.479930197	0.061934194
3	996046	217.560829088	0.080898891
3	996155	217.583218737	0.022389649
3	996991	217.794137787	0.21091905
3	997364	217.906120073	0.111982286
3	998251	218.14626947	0.240149397
3	998358	218.172660881	0.026391411
3	999476	218.509643157	0.336982276
3	999978	218.657401751	0.147758594
3	999993	218.663749137	0.006347386
3	1000106	218.708220783	0.044471646
3	1000141	218.716804729	0.008583946
3	1000741	218.92605563	0.209250901
3	1000946	219.030289347	0.104233717
3	1001265	219.146783451	0.116494104
3	1001551	219.238598439	0.091814988
3	1002318	219.482776532	0.244178093
3	1002529	219.541740939	0.058964407
3	1002624	219.570079763	0.028338824
3	1002715	219.602231154	0.032151391
3	1002854	219.639695159	0.037464005
3	1002874	219.647524182	0.007829023
3	1003069	219.724340795	0.076816613
3	1003868	219.996944367	0.272603572
3	1004320	220.113815331	0.116870964
3	1004479	220.178628527	0.064813196
3	1004997	220.393535716	0.214907189
3	1005450	220.523390664	0.129854948
3	1005591	220.562922678	0.039532014
3	1005842	220.659435818	0.09651314
3	1006153	220.75624002	0.096804202
3	1007273	221.083644155	0.327404135
3	1007438	221.12743029	0.043786135
3	1007974	221.286114805	0.158684515
3	1007992	221.292006926	0.005892121
3	1008207	221.361065615	0.069058689
3	1008505	221.443540029	0.082474414
3	1008558	221.462505222	0.018965193
3	1008674	221.499133097	0.036627875
3	1009447	221.710489589	0.211356492
3	1009474	221.717597846	0.007108257
3	1009575	221.74643161	0.028833764
3	1009613	221.7634508	0.01701919
3	1009620	221.767645996	0.004195196
3	1009911	221.831277616	0.06363162
3	1010362	221.962869843	0.131592227
3	1010540	222.019636881	0.056767038
3	1011176	222.217684388	0.198047507
3	1011815	222.420720016	0.203035628
3	1011906	222.440381451	0.019661435
3	1013005	222.748344382	0.307962931
3	1013328	222.826449589	0.078105207
3	1013356	222.837190529	0.01074094
3	1013619	222.914840817	0.077650288
3	1013755	222.95502761	0.040186793
3	1013950	222.998588204	0.043560594
3	1014147	223.059039047	0.060450843
3	1014304	223.110950925	0.051911878
3	1014557	223.208250654	0.097299729
3	1014578	223.216909802	0.008659148
3	1014697	223.256202171	0.039292369
3	1015694	223.575660242	0.319458071
3	1016017	223.696126103	0.120465861
3	1016482	223.804211612	0.108085509
3	1016735	223.878000119	0.073788507
3	1016933	223.944715878	0.066715759
3	1017028	223.979545833	0.034829955
3	1017276	224.103095244	0.123549411
3	1017317	224.119852027	0.016756783
3	1017325	224.125467357	0.00561533
3	1017396	224.160432703	0.034965346
3	1017450	224.170322749	0.009890046
3	1017747	224.311349045	0.141026296
3	1017848	224.34581059	0.034461545
3	1018094	224.434507785	0.088697195
3	1018603	224.606177857	0.171670072
3	1018685	224.637789603	0.031611746
3	1019119	224.742217689	0.104428086
3	1019141	224.75426087	0.012043181
3	1019513	224.860877804	0.106616934
3	1019564	224.880272117	0.019394313
3	1019846	224.957653261	0.077381144
3	1019959	224.979781114	0.022127853
3	1020018	224.997971954	0.01819084
3	1020362	225.093467736	0.095495782
3	1020640	225.193190051	0.099722315
3	1020898	225.280957628	0.087767577
3	1021488	225.467404942	0.186447314
3	1021747	225.576886179	0.109481237
3	1021929	225.655668053	0.078781874
3	1022117	225.729053185	0.073385132
3	1022484	225.84173553	0.112682345
3	1022815	225.978158549	0.136423019
3	1022826	225.985908039	0.00774949
3	1023662	226.216116693	0.230208654
3	1024812	226.603228054	0.387111361
3	1025223	226.728464833	0.125236779
3	1025323	226.765628803	0.03716397
3	1025668	226.898022414	0.132393611
3	1026254	227.123510317	0.225487903
3	1026301	227.139588338	0.016078021
3	1026627	227.257755254	0.118166916
3	1026758	227.307896789	0.050141535
3	1026887	227.369443215	0.061546426
3	1027343	227.543434254	0.173991039
3	1027770	227.665293159	0.121858905
3	1028220	227.824951398	0.159658239
3	1028362	227.889624756	0.064673358
3	1029346	228.186218107	0.296593351
3	1029449	228.234074819	0.047856712
3	1029486	228.245786585	0.011711766
3	1029761	228.339036352	0.093249767
3	1029812	228.360629693	0.021593341
3	1030037	228.463351063	0.10272137
3	1030038	228.464555477	0.001204414
3	1030166	228.510669966	0.046114489
3	1030509	228.673315212	0.162645246
3	1030598	228.712137853	0.038822641
3	1030755	228.756305412	0.044167559
3	1030821	228.777419905	0.021114493
3	1031045	228.854840802	0.077420897
3	1031071	228.865000495	0.010159693
3	1031476	229.07326156	0.208261065
3	1031781	229.212889707	0.139628147
3	1032269	229.353863497	0.14097379
3	1032335	229.38575363	0.031890133
3	1032484	229.422150203	0.036396573
3	1033269	229.661959005	0.239808802
3	1033335	229.689723025	0.02776402
3	1033336	229.691220986	0.001497961
3	1033380	229.696157823	0.004936837
3	1033896	229.861413439	0.165255616
3	1033920	229.875407082	0.013993643
3	1034607	230.07475837	0.199351288
3	1035755	230.511573852	0.436815482
3	1035842	230.541515972	0.02994212
3	1036158	230.659626696	0.118110724
3	1036637	230.812445791	0.152819095
3	1037544	231.080438096	0.267992305
3	1037728	231.141880443	0.061442347
3	1038862	231.573722335	0.431841892
3	1038931	231.597275042	0.023552707
3	1039851	231.921128904	0.323853862
3	1039903	231.939166386	0.018037482
3	1040014	231.969067659	0.029901273
3	1040252	232.061086117	0.092018458
3	1040857	232.214462963	0.153376846
3	1040975	232.263897688	0.049434725
3	1041116	232.299345981	0.035448293
3	1041568	232.430513689	0.131167708
3	1041667	232.463364376	0.032850687
3	1041842	232.504747356	0.04138298
3	1041846	232.506335818	0.001588462
3	1041873	232.513767684	0.007431866
3	1042322	232.65035777	0.136590086
3	1042922	232.830087945	0.179730175
3	1043247	232.932731911	0.102643966
3	1043666	233.077996393	0.145264482
3	1043837	233.136932388	0.058935995
3	1044250	233.286828892	0.149896504
3	1044510	233.369325289	0.082496397
3	1044532	233.383582938	0.014257649
3	1044637	233.423634726	0.040051788
3	1044721	233.445792067	0.022157341
3	1044727	233.44763056	0.001838493
3	1045135	233.610689313	0.163058753
3	1045734	233.838628498	0.227939185
3	1045848	233.888327028	0.04969853
3	1045911	233.924319099	0.035992071
3	1046294	234.141020964	0.216701865
3	1046313	234.153028236	0.012007272
3	1046534	234.256617005	0.103588769
3	1046651	234.301683776	0.045066771
3	1047658	234.665351685	0.363667909
3	1047659	234.666057819	0.000706134
3	1048724	234.968700186	0.302642367
3	1048898	235.020361721	0.051661535
3	1049069	235.088333659	0.067971938
3	1049238	235.167479407	0.079145748
3	1049379	235.20507461	0.037595203
3	1050511	235.628672458	0.423597848
3	1050901	235.786477481	0.157805023
3	1051055	235.835077671	0.04860019
3	1052405	236.2621186	0.427040929
3	1052978	236.492857764	0.230739164
3	1053097	236.540786547	0.047928783
3	1053175	236.560462007	0.01967546
3	1053249	236.592072922	0.031610915
3	1053577	236.71650754	0.124434618
3	1053744	236.777251789	0.060744249
3	1053825	236.809967942	0.032716153
3	1054277	236.974658827	0.164690885
3	1054637	237.093269274	0.118610447
3	1054967	237.193376504	0.10010723
3	1055298	237.289553897	0.096177393
3	1055541	237.35895196	0.069398063
3	1055666	237.398960025	0.040008065
3	1055739	237.421565621	0.022605596
3	1056180	237.553611787	0.132046166
3	1056834	237.807258531	0.253646744
3	1057023	237.882473716	0.075215185
3	1057034	237.885720652	0.003246936
3	1057200	237.95300991	0.067289258
3	1057520	238.09139438	0.13838447
3	1057783	238.212646679	0.121252299
3	1057984	238.289375853	0.076729174
3	1058026	238.301154428	0.011778575
3	1058632	238.51078089	0.209626462
3	1058845	238.582270222	0.071489332
3	1058946	238.620790306	0.038520084
3	1059122	238.692236785	0.071446479
3	1059316	238.739103534	0.046866749
3	1059614	238.833816695	0.094713161
3	1059881	238.915148717	0.081332022
3	1060129	238.996424829	0.081276112
3	1060152	238.998844336	0.002419507
3	1060239	239.018249313	0.019404977
3	1060306	239.05447446	0.036225147
3	1060566	239.169463843	0.114989383
3	1060771	239.241935567	0.072471724
3	1061758	239.583664553	0.341728986
3	1061762	239.584778432	0.001113879
3	1062057	239.69090194	0.106123508
3	1062572	239.914233207	0.223331267
3	1062847	240.000088259	0.085855052
3	1063592	240.275066983	0.274978724
3	1063652	240.288170243	0.01310326
3	1063841	240.346470542	0.058300299
3	1063911	240.363205574	0.016735032
3	1064092	240.421687471	0.058481897
3	1064930	240.646835754	0.225148283
3	1065253	240.747565677	0.100729923
3	1065976	240.96666041	0.219094733
3	1066095	241.00569281	0.0390324
3	1066466	241.141707931	0.136015121
3	1066674	241.221506392	0.079798461
3	1066728	241.24762698	0.026120588
3	1067290	241.425856297	0.178229317
3	1067660	241.541600563	0.115744266
3	1068115	241.693725187	0.152124624
3	1068133	241.699435472	0.005710285
3	1068644	241.861425781	0.161990309
3	1069276	242.079091854	0.217666073
3	1070398	242.394382572	0.315290718
3	1070490	242.434600583	0.040218011
3	1070561	242.458632723	0.02403214
3	1070718	242.499402784	0.040770061
3	1071068	242.596839093	0.097436309
3	1071848	242.844268937	0.247429844
3	1072379	243.017074734	0.172805797
3	1072535	243.078428541	0.061353807
3	1072626	243.109383483	0.030954942
3	1072692	243.141570293	0.03218681
3	1073112	243.253023185	0.111452892
3	1073177	243.279667227	0.026644042
3	1073254	243.307472315	0.027805088
3	1073820	243.481504549	0.174032234
3	1073942	243.526562884	0.045058335
3	1073980	243.550569459	0.024006575
3	1074184	243.628038544	0.077469085
3	1074356	243.711407129	0.083368585
3	1074483	243.76358363	0.052176501
3	1074627	243.815756041	0.052172411
3	1074831	243.920853317	0.105097276
3	1074918	243.968358015	0.047504698
3	1075191	244.137586759	0.169228744
3	1075474	244.277648517	0.140061758
3	1075481	244.282603186	0.004954669
3	1075792	244.402703879	0.120100693
3	1076424	244.621016404	0.218312525
3	1076481	244.6459437	0.024927296
3	1076692	244.706989864	0.061046164
3	1076752	244.720020076	0.013030212
3	1076997	244.817238994	0.097218918
3	1077683	245.023020066	0.205781072
3	1077837	245.073869292	0.050849226
3	1078097	245.126998357	0.053129065
3	1078236	245.154037531	0.027039174
3	1078286	245.170360744	0.016323213
3	1078826	245.29907731	0.128716566
3	1079154	245.40142832	0.10235101
3	1079440	245.489605441	0.088177121
3	1079761	245.630904741	0.1412993
3	1079910	245.707857607	0.076952866
3	1079982	245.749466392	0.041608785
3	1080026	245.767978995	0.018512603
3	1080531	245.897628492	0.129649497
3	1080557	245.906540387	0.008911895
3	1080561	245.909909759	0.003369372
3	1080840	245.994998649	0.08508889
3	1081028	246.035867174	0.040868525
3	1081118	246.063119648	0.027252474
3	1081367	246.144439904	0.081320256
3	1081409	246.159134456	0.014694552
3	1081824	246.317844563	0.158710107
3	1081938	246.377012601	0.059168038
3	1081939	246.377095726	8.3125e-005
3	1082061	246.432548365	0.055452639
3	1082754	246.701463597	0.268915232
3	1082821	246.717496374	0.016032777
3	1082867	246.738672802	0.021176428
3	1083299	246.929621252	0.19094845
3	1083580	247.045288427	0.115667175
3	1083613	247.057001131	0.011712704
3	1083671	247.083040064	0.026038933
3	1083847	247.15404776	0.071007696
3	1083873	247.168888982	0.014841222
3	1083883	247.170583197	0.001694215
3	1084025	247.212757333	0.042174136
3	1084265	247.295283819	0.082526486
3	1084404	247.349228823	0.053945004
3	1085038	247.543821721	0.194592898
3	1085393	247.656799631	0.11297791
3	1085499	247.702489153	0.045689522
3	1085582	247.724400279	0.021911126
3	1086106	247.881754082	0.157353803
3	1086224	247.922279644	0.040525562
3	1086660	248.088344382	0.166064738
3	1086835	248.143962908	0.055618526
3	1086963	248.194122892	0.050159984
3	1087070	248.224112505	0.029989613
3	1087224	248.282572695	0.05846019
3	1087444	248.403094286	0.120521591
3	1087527	248.443141709	0.040047423
3	1087788	248.536194259	0.09305255
3	1088046	248.651266369	0.11507211
3	1088093	248.676590053	0.025323684
3	1088113	248.680557523	0.00396747
3	1088254	248.738169865	0.057612342
3	1088704	248.919768614	0.181598749
3	1088906	249.016228182	0.096459568
3	1088970	249.05323764	0.037009458
3	1089010	249.06357176	0.01033412
3	1089035	249.074844194	0.011272434
3	1089289	249.189537681	0.114693487
3	1089943	249.482970762	0.293433081
3	1090013	249.51525176	0.032280998
3	1090175	249.593344648	0.078092888
3	1090522	249.713460942	0.120116294
3	1091118	249.97334049	0.259879548
3	1091194	249.988307122	0.014966632
3	1091216	249.998785919	0.010478797
3	1091320	250.055137942	0.056352023
3	1091439	250.107020546	0.051882604
3	1091983	250.391257101	0.284236555
3	1092016	250.405441526	0.014184425
3	1092030	250.410290689	0.004849163
3	1092068	250.427486126	0.017195437
3	1092431	250.58880265	0.161316524
3	1092689	250.701511229	0.112708579
3	1092768	250.737051435	0.035540206
3	1092893	250.796012985	0.05896155
3	1092917	250.798641247	0.002628262
3	1093347	250.960434369	0.161793122
3	1094483	251.290089565	0.329655196
3	1095343	251.567865863	0.277776298
3	1095680	251.70807606	0.140210197
3	1095838	251.759671779	0.051595719
3	1095881	251.78108547	0.021413691
3	1096153	251.908807267	0.127721797
3	1096158	251.910461198	0.001653931
3	1096402	252.006186943	0.095725745
3	1096524	252.054879685	0.048692742
3	1097882	252.500403109	0.445523424
3	1098727	252.758134014	0.257730905
3	1098909	252.807297236	0.049163222
3	1099686	253.083122626	0.27582539
3	1099728	253.090517597	0.007394971
3	1099871	253.142187945	0.051670348
3	1099976	253.172109974	0.029922029
3	1100071	253.200457462	0.028347488
3	1100595	253.331236418	0.130778956
3	1101038	253.445156779	0.113920361
3	1101461	253.609387418	0.164230639
3	1101670	253.695318085	0.085930667
3	1101862	253.756235637	0.060917552
3	1102218	253.901739673	0.145504036
3	1102386	253.959638062	0.057898389
3	1102445	253.979795875	0.020157813
3	1102506	254.013390278	0.033594403
3	1102839	254.185632329	0.172242051
3	1102924	254.228471625	0.042839296
3	1103051	254.271750853	0.043279228
3	1103074	254.27743854	0.005687687
3	1103089	254.295735089	0.018296549
3	1103162	254.321302546	0.025567457
3	1103200	254.340069879	0.018767333
3	1103382	254.433361958	0.093292079
3	1103660	254.549681608	0.11631965
3	1104195	254.746856072	0.197174464
3	1104239	254.762883244	0.016027172
3	1104240	254.763246766	0.000363522
3	1104632	254.888045987	0.124799221
3	1105102	255.01263916	0.124593173
3	1105967	255.291310424	0.278671264
3	1106156	255.379729234	0.08841881
3	1106192	255.396108394	0.01637916
3	1106304	255.456827404	0.06071901
3	1106525	255.587152094	0.13032469
3	1106585	255.616584266	0.029432172
3	1106812	255.753274336	0.13669007
3	1107040	255.850067344	0.096793008
3	1107330	255.976357113	0.126289769
3	1107529	256.067096666	0.090739553
3	1107732	256.152329988	0.085233322
3	1107757	256.163875118	0.01154513
3	1107809	256.189378717	0.025503599
3	1107855	256.212900124	0.023521407
3	1108021	256.300589103	0.087688979
3	1108053	256.315188474	0.014599371
3	1108331	256.440729676	0.125541202
3	1108782	256.578562757	0.137833081
3	1109284	256.732331847	0.15376909
3	1109778	256.894881711	0.162549864
3	1110746	257.24210059	0.347218879
3	1110794	257.265134382	0.023033792
3	1110828	257.273665715	0.008531333
3	1111156	257.36533606	0.091670345
3	1111185	257.377188418	0.011852358
3	1111369	257.416175692	0.038987274
3	1111681	257.551592977	0.135417285
3	1111779	257.58612179	0.034528813
3	1111887	257.622570239	0.036448449
3	1111949	257.651941316	0.029371077
3	1111966	257.657008683	0.005067367
3	1112528	257.86579375	0.208785067
3	1112785	257.995364313	0.129570563
3	1112798	258.006751419	0.011387106
3	1113521	258.316515877	0.309764458
3	1113542	258.324880242	0.008364365
3	1113563	258.33267759	0.007797348
3	1113664	258.381554004	0.048876414
3	1113880	258.470976662	0.089422658
3	1113942	258.493676424	0.022699762
3	1114039	258.53344146	0.039765036
3	1114212	258.597691123	0.064249663
3	1114437	258.697472727	0.099781604
3	1114838	258.845115605	0.147642878
3	1115154	258.980614873	0.135499268
3	1115304	259.06039754	0.079782667
3	1115415	259.110925486	0.050527946
3	1115651	259.19132657	0.080401084
3	1115809	259.243873585	0.052547015
3	1115950	259.288503151	0.044629566
3	1116581	259.561267822	0.272764671
3	1116859	259.688757428	0.127489606
3	1117062	259.756293965	0.067536537
3	1117230	259.838860286	0.082566321
3	1117237	259.840296543	0.001436257
3	1117704	259.987883409	0.147586866
3	1118069	260.103741096	0.115857687
3	1118117	260.121024534	0.017283438
3	1118142	260.129630933	0.008606399
3	1118187	260.143342836	0.013711903
3	1118200	260.149492832	0.006149996
3	1119409	260.613227906	0.463735074
3	1119534	260.656767943	0.043540037
3	1120092	260.817709466	0.160941523
3	1120254	260.841924131	0.024214665
3	1121352	261.098166845	0.256242714
3	1121546	261.142911946	0.044745101
3	1122146	261.338791628	0.195879682
3	1122194	261.363719422	0.024927794
3	1122527	261.463352464	0.099633042
3	1123093	261.648905212	0.185552748
3	1123094	261.649259998	0.000354786
3	1123443	261.775014044	0.125754046
3	1123568	261.803409344	0.0283953
3	1123750	261.855870853	0.052461509
3	1123807	261.869399546	0.013528693
3	1123901	261.904866016	0.03546647
3	1123915	261.910250214	0.005384198
3	1124056	261.966122515	0.055872301
3	1124141	261.990929206	0.024806691
3	1124629	262.144334317	0.153405111
3	1124735	262.174866993	0.030532676
3	1124861	262.229235519	0.054368526
3	1125251	262.362036946	0.132801427
3	1126039	262.667132561	0.305095615
3	1126284	262.765199715	0.098067154
3	1126413	262.799651356	0.034451641
3	1126550	262.843662739	0.044011383
3	1127347	263.134501311	0.290838572
3	1127734	263.239476878	0.104975567
3	1127936	263.291570754	0.052093876
3	1128373	263.425228642	0.133657888
3	1128945	263.610974059	0.185745417
3	1129191	263.685547352	0.074573293
3	1129310	263.71990567	0.034358318
3	1129797	263.839528085	0.119622415
3	1129903	263.870868783	0.031340698
3	1130058	263.919371217	0.048502434
3	1130227	263.968172961	0.048801744
3	1130545	264.049130173	0.080957212
3	1130625	264.064443985	0.015313812
3	1131171	264.222838518	0.158394533
3	1131755	264.436615989	0.213777471
3	1132316	264.627212913	0.190596924
3	1132368	264.651361847	0.024148934
3	1132557	264.727261807	0.07589996
3	1132779	264.826131471	0.098869664
3	1132815	264.842288514	0.016157043
3	1133432	265.078182391	0.235893877
3	1133465	265.087827175	0.009644784
3	1133836	265.218694446	0.130867271
3	1134310	265.394234984	0.175540538
3	1134356	265.412691711	0.018456727
3	1134637	265.523954516	0.111262805
3	1134642	265.528642296	0.00468778
3	1134981	265.664613698	0.135971402
3	1135076	265.718356339	0.053742641
3	1135156	265.756528961	0.038172622
3	1135369	265.827800481	0.07127152
3	1135966	266.066257973	0.238457492
3	1136364	266.178774359	0.112516386
3	1136895	266.313608623	0.134834264
3	1137195	266.440291941	0.126683318
3	1137472	266.542279748	0.101987807
3	1138023	266.728964497	0.186684749
3	1138051	266.737805503	0.008841006
3	1138206	266.791545204	0.053739701
3	1138302	266.824781497	0.033236293
3	1138356	266.845617905	0.020836408
3	1139115	267.172183011	0.326565106
3	1139137	267.186756735	0.014573724
3	1139138	267.187257382	0.000500647
3	1139180	267.199188101	0.011930719
3	1139531	267.34676732	0.147579219
3	1140008	267.519133195	0.172365875
3	1140605	267.733595342	0.214462147
3	1140670	267.751619696	0.018024354
3	1141360	267.964108474	0.212488778
3	1141389	267.976208053	0.012099579
3	1141480	267.999678838	0.023470785
3	1142137	268.240553506	0.240874668
3	1142347	268.308938768	0.068385262
3	1142390	268.320970317	0.012031549
3	1142703	268.445423337	0.12445302
3	1142836	268.519957748	0.074534411
3	1142952	268.556368048	0.0364103
3	1142964	268.559052232	0.002684184
3	1143064	268.593369619	0.034317387
3	1143243	268.672197373	0.078827754
3	1143288	268.681182482	0.008985109
3	1143619	268.805092486	0.123910004
3	1143878	268.91212324	0.107030754
3	1143983	268.951423057	0.039299817
3	1144167	269.033079529	0.081656472
3	1144234	269.059435845	0.026356316
3	1144308	269.0998829	0.040447055
3	1144391	269.13580465	0.03592175
3	1144590	269.184745098	0.048940448
3	1144626	269.195461586	0.010716488
3	1144744	269.225423578	0.029961992
3	1145188	269.373345049	0.147921471
3	1145892	269.570914588	0.197569539
3	1146080	269.656351467	0.085436879
3	1146135	269.682756767	0.0264053
3	1146625	269.86734263	0.184585863
3	1146692	269.88539844	0.01805581
3	1146813	269.920641214	0.035242774
3	1146883	269.939124292	0.018483078
3	1146974	269.966492027	0.027367735
3	1147446	270.115748004	0.149255977
3	1147657	270.179620664	0.06387266
3	1147739	270.227468102	0.047847438
3	1147984	270.33646731	0.108999208
3	1148172	270.399892849	0.063425539
3	1148398	270.466465146	0.066572297
3	1148541	270.51266161	0.046196464
3	1149522	270.878027392	0.365365782
3	1150184	271.109462125	0.231434733
3	1150205	271.112848341	0.003386216
3	1150578	271.269652341	0.156804
3	1150768	271.35067955	0.081027209
3	1150850	271.381073881	0.030394331
3	1150874	271.389047332	0.007973451
3	1151363	271.567270898	0.178223566
3	1151658	271.64593659	0.078665692
3	1151693	271.666061691	0.020125101
3	1151747	271.703057472	0.036995781
3	1153172	272.184752082	0.48169461
3	1153204	272.193471544	0.008719462
3	1153268	272.217929526	0.024457982
3	1153566	272.351600231	0.133670705
3	1153629	272.380205026	0.028604795
3	1153917	272.477743725	0.097538699