version 2
run ChordDht-1-20211203-23:48:00-3224
attr Lifetime 200s
attr configname ChordDht
attr datetime 20211203-23:48:00
attr experiment ChordDht
attr inifile configs.ini
attr iterationvars $Lifetime=200s
attr iterationvars2 "$Lifetime=200s, $repetition=0"
attr measurement $Lifetime=200s
attr network oversim.underlay.simpleunderlay.SimpleUnderlayNetwork
attr processid 3224
attr repetition 0
attr replication #0
attr resultdir results
attr runnumber 1
attr seedset 1

vector 7  SimpleUnderlayNetwork.globalObserver.globalStatistics  "GlobalNodeList: Number of nodes"  ETV
vector 8  SimpleUnderlayNetwork.globalObserver.globalStatistics  "GlobalDhtTestMap: Number of stored DHT entries"  ETV
vector 9  SimpleUnderlayNetwork.globalObserver.globalStatistics  "LifetimeChurn: Session Time"  ETV
vector 10  SimpleUnderlayNetwork.globalObserver.globalStatistics  "LifetimeChurn: Time between creates"  ETV
vector 11  SimpleUnderlayNetwork.globalObserver.globalStatistics  "LifetimeChurn: Time between deletes"  ETV
7	1098433	200	1022
7	1368049	250	1029
7	1623855	300	1036
7	1851764	350	1054
7	2055922	400	1024
7	2244147	450	1034
7	2435137	500	1052
7	2621903	550	1040
7	2793569	600	1036
7	2972834	650	1036
7	3143004	700	993
7	3308318	750	992
7	3481770	800	1004
7	3651127	850	1023
7	3848893	900	1026
7	4052597	950	1035
7	4247604	1000	1048
7	4433536	1050	1040
7	4611596	1100	1056
7	4791166	1150	1058
8	1098434	200	1281
8	1154434	210	1445
8	1210944	220	1577
8	1261495	230	1721
8	1310547	240	1826
8	1368050	250	1982
8	1426126	260	2116
8	1478550	270	2250
8	1526237	280	2389
8	1575195	290	2517
8	1623856	300	2647
8	1668355	310	2796
8	1715467	320	2946
8	1761253	330	3077
8	1808112	340	3217
8	1851765	350	3346
8	1891532	360	3482
8	1934511	370	3611
8	1975672	380	3753
8	2014991	390	3901
8	2055923	400	4033
8	2097777	410	4091
8	2135404	420	4114
8	2171700	430	4097
8	2208204	440	4098
8	2244148	450	4091
8	2285640	460	4079
8	2322624	470	4099
8	2358152	480	4105
8	2395837	490	4093
8	2435138	500	4124
8	2472160	510	4099
8	2509292	520	4094
8	2548718	530	4097
8	2586063	540	4108
8	2621904	550	4082
8	2656901	560	4100
8	2687463	570	4105
8	2724473	580	4104
8	2760792	590	4129
8	2793570	600	4134
8	2828393	610	4102
8	2864678	620	4104
8	2898977	630	4110
8	2934629	640	4118
8	2972835	650	4129
8	3009398	660	4133
8	3045134	670	4139
8	3079702	680	4119
8	3111040	690	4108
8	3143005	700	4116
8	3177745	710	4088
8	3210979	720	4123
8	3242869	730	4108
8	3274084	740	4114
8	3308319	750	4101
8	3340806	760	4093
8	3373905	770	4078
8	3411065	780	4085
8	3447033	790	4091
8	3481771	800	4080
8	3515906	810	4067
8	3550462	820	4067
8	3584152	830	4063
8	3617074	840	4089
8	3651128	850	4095
8	3687668	860	4074
8	3728164	870	4071
8	3768269	880	4073
8	3806619	890	4055
8	3848894	900	4062
8	3891816	910	4077
8	3932509	920	4070
8	3972331	930	4074
8	4011749	940	4042
8	4052598	950	4052
8	4092659	960	4052
8	4134105	970	4043
8	4171423	980	4067
8	4209616	990	4070
8	4247605	1000	4063
8	4285597	1010	4078
8	4323949	1020	4040
8	4360269	1030	4072
8	4396977	1040	4069
8	4433537	1050	4077
8	4469086	1060	4087
8	4506641	1070	4106
8	4540250	1080	4087
8	4577088	1090	4090
8	4611597	1100	4092
8	4646387	1110	4098
8	4678743	1120	4123
8	4717105	1130	4117
8	4754439	1140	4116
8	4791167	1150	4102
8	4828862	1160	4123
8	4867871	1170	4131
8	4905322	1180	4157
8	4941267	1190	4106
9	1098660	200.038574294	837.867223311
9	1101346	200.478964175	28.344422615
9	1102181	200.621256296	15.307828799
9	1104101	200.920829285	279.782270881
9	1105075	201.087325418	110.481479717
9	1105176	201.100997401	27.929619835
9	1105306	201.122340416	32.306122004
9	1106370	201.305854992	86.572322946
9	1113112	202.468302061	231.066282192
9	1113449	202.543225322	11.470274444
9	1115341	202.925677527	54.73244152
9	1115460	202.950903453	286.360265223
9	1115537	202.964906383	140.884803672
9	1116115	203.087023093	117.078012941
9	1118205	203.570686986	152.147040957
9	1122427	204.337841865	69.146745438
9	1122490	204.350845214	71.50957434
9	1123007	204.485869868	377.496390914
9	1123022	204.486848019	150.744421333
9	1124693	204.865654065	5.400843791
9	1124896	204.895951769	568.90099358
9	1130093	205.687563135	147.644668509
9	1130693	205.801772618	54.944649082
9	1131791	205.986197448	155.984899673
9	1133270	206.250108786	13.341946913
9	1133590	206.300564525	48.205706303
9	1133834	206.339249094	240.586908144
9	1135812	206.747799205	49.143607131
9	1135836	206.749997339	277.696019954
9	1136029	206.774557083	484.567158046
9	1136374	206.836465756	1346.375365251
9	1136622	206.879559988	30.462724176
9	1138344	207.163231292	16.408285501
9	1138881	207.264067093	809.007398343
9	1139777	207.447952685	229.009485818
9	1140558	207.599160022	126.138437505
9	1142723	208.138999115	2.426343094
9	1144233	208.416570376	218.455625719
9	1144328	208.427769255	83.008698057
9	1145742	208.667875725	374.564733374
9	1145904	208.688682803	170.570656905
9	1146690	208.804868121	225.09513727
9	1147339	208.904931056	90.291665412
9	1147809	208.984332641	270.912264734
9	1148427	209.072913767	40.650373626
9	1148991	209.158127899	445.549192721
9	1149960	209.327738417	179.820616282
9	1150871	209.455683635	137.487748805
9	1151282	209.530979403	92.192535897
9	1152085	209.679235274	207.449191326
9	1153893	209.938804998	28.887458625
9	1155935	210.211694941	459.081891227
9	1158122	210.524032485	238.344811655
9	1159847	210.791038867	340.94183805
9	1160169	210.852122564	559.829703339
9	1160277	210.87240769	15.81244695
9	1160304	210.875913078	20.947823197
9	1164048	211.545745504	136.708514841
9	1164170	211.557229436	309.589677526
9	1164962	211.657756079	274.96933892
9	1165974	211.839515176	640.823337921
9	1166530	211.939748913	122.121054713
9	1167351	212.095657947	105.910929128
9	1167385	212.099112847	107.932375457
9	1168825	212.323813484	479.806842353
9	1169359	212.412519578	123.192885879
9	1170373	212.589390001	57.856664062
9	1171068	212.710997451	81.606690236
9	1171400	212.781673986	86.937358003
9	1171770	212.859120751	218.95188453
9	1171918	212.892643468	164.716788081
9	1172000	212.912400393	111.598972096
9	1172338	212.97269459	609.759199587
9	1173870	213.219548305	223.866913609
9	1174571	213.321347986	107.818944646
9	1176958	213.688239075	507.706709889
9	1177581	213.810438891	234.667253415
9	1178860	214.11947634	60.036051517
9	1178958	214.138551401	371.248419534
9	1179340	214.205504283	88.474742431
9	1180367	214.381204336	427.006428136
9	1183326	214.872639467	59.652363887
9	1185885	215.340752588	120.899527537
9	1189655	215.994635486	2.573677709
9	1190073	216.077732651	160.402223769
9	1190124	216.084387861	381.614663402
9	1191531	216.422850156	156.413269401
9	1191670	216.447049401	718.041335209
9	1191926	216.4952699	41.732783978
9	1194252	216.902075552	317.2746785
9	1197179	217.391179812	55.153387284
9	1198191	217.561430785	49.079187342
9	1203885	218.670642336	266.392973585
9	1204196	218.728154341	151.301518578
9	1204574	218.802872196	15.238928611
9	1204600	218.804823895	13.194712016
9	1206478	219.108747667	70.080104673
9	1207102	219.219225605	271.9579004
9	1208700	219.52117233	121.30383538
9	1208998	219.610440926	105.971372984
9	1209378	219.705500626	92.066953387
9	1209808	219.801451225	75.403666389
9	1210422	219.914525196	73.612386986
9	1212005	220.185114007	63.642255429
9	1212071	220.198631025	14.177016466
9	1212649	220.280270923	247.423354709
9	1212818	220.313252499	98.758122779
9	1213243	220.403085958	66.524228509
9	1213517	220.443797406	361.797409923
9	1214673	220.665458408	346.42868002
9	1215037	220.740979626	434.511736649
9	1215564	220.871659035	167.690705305
9	1216231	221.009918127	478.236459248
9	1216684	221.125453599	246.273286783
9	1218521	221.50244362	45.35475245
9	1218553	221.50693893	94.997954869
9	1219151	221.630155704	171.819587526
9	1219447	221.688661373	68.528091992
9	1219753	221.732241631	485.139993858
9	1219852	221.750861991	34.768631435
9	1221943	222.116559729	124.350109803
9	1223988	222.535110543	209.481690064
9	1224566	222.659535588	84.3137685
9	1225043	222.751368159	104.624884315
9	1226652	223.068884229	4.351969139
9	1227255	223.180242734	315.702507008
9	1227489	223.221203555	796.814140193
9	1228494	223.416069718	36.426455803
9	1228943	223.51681254	168.038461773
9	1230000	223.729406501	308.82440372
9	1230515	223.823164686	22.228526472
9	1230923	223.908445458	543.140769296
9	1231797	224.08797116	98.147080603
9	1232401	224.225257519	191.147807481
9	1233780	224.509409088	286.635556054
9	1233991	224.559027909	40.919077456
9	1234342	224.627576383	6.549129505
9	1237856	225.289790663	150.798794078
9	1239821	225.740190344	17.851536986
9	1241398	226.050519555	18.43720943
9	1241426	226.053275373	160.342117721
9	1243320	226.383245744	21.845431143
9	1243684	226.458716169	176.03140251
9	1244772	226.680875308	563.956713113
9	1245171	226.779156748	32.62662461
9	1247291	227.278686597	16.689577747
9	1248371	227.507638392	32.903986577
9	1248852	227.603243819	539.381279743
9	1249885	227.742466138	46.734137164
9	1251929	228.208976166	17.71037912
9	1253206	228.42888499	72.630025568
9	1254732	228.739701706	84.422337204
9	1257769	229.287334365	30.886642468
9	1259634	229.688684373	312.485601499
9	1260722	229.847292274	416.53553886
9	1261392	229.973251733	74.681084601
9	1262507	230.160052658	52.588281426
9	1262702	230.190158532	170.766070921
9	1262996	230.239966731	78.848652778
9	1264148	230.439659428	528.193932461
9	1265917	230.809497505	235.971662299
9	1266482	230.892315575	42.877086501
9	1268123	231.205624149	14.468117614
9	1269653	231.462196666	19.680731059
9	1274957	232.399908653	163.21171238
9	1275060	232.41971596	265.796889743
9	1275396	232.48107792	687.718770721
9	1275483	232.495835225	22.112272171
9	1275653	232.523261137	11.406124811
9	1279828	233.093202653	242.483695389
9	1281468	233.394134964	573.285777874
9	1281521	233.403326415	265.588617488
9	1281968	233.518596789	311.220306743
9	1282082	233.534403949	442.838251284
9	1283320	233.800604966	196.398188807
9	1283470	233.844787059	183.321526561
9	1283493	233.847438128	289.576981293
9	1285984	234.493451774	1111.491918694
9	1286032	234.498379228	83.769427419
9	1287201	234.768355879	27.055419279
9	1287636	234.836878535	1798.706958333
9	1290197	235.39639455	346.744999342
9	1290939	235.581680019	172.830594958
9	1291967	235.872364738	237.095747749
9	1293788	236.373775629	68.017578912
9	1294383	236.534153917	212.907372643
9	1297707	237.334715023	185.736881445
9	1298480	237.529762259	26.274281838
9	1298572	237.548282811	117.283444793
9	1298931	237.611341751	182.144948453
9	1299196	237.657555579	93.747938533
9	1305093	238.66674381	112.578534017
9	1305354	238.717819151	547.145283045
9	1305434	238.733787406	462.300732862
9	1306026	238.8750574	193.617444714
9	1306045	238.877418355	5.670841863
9	1306736	239.043411722	220.802827301
9	1307010	239.130709916	88.658291355
9	1307592	239.285001134	152.565206592
9	1307948	239.347288925	58.01249554
9	1308887	239.598128338	541.437247259
9	1309172	239.675387889	236.468061588
9	1309279	239.696583222	272.728322207
9	1309353	239.706974246	0.448557173
9	1309609	239.770237194	16.88852154
9	1310355	239.956541602	16.974659195
9	1310694	240.038191201	101.896625377
9	1312758	240.445322421	3.647246159
9	1313099	240.51857342	870.131116705
9	1313188	240.53178566	229.817625033
9	1313243	240.543456371	19.905559531
9	1314501	240.787030965	829.041473458
9	1315539	240.939534455	97.747158806
9	1315708	240.96322605	274.596492308
9	1316836	241.097049904	433.480202275
9	1317543	241.168167955	206.25478673
9	1318542	241.281834897	174.00723668
9	1320804	241.639969855	302.147907304
9	1322830	241.913506227	141.302290444
9	1325585	242.271500842	180.906910031
9	1326997	242.501588408	89.427093699
9	1327300	242.55664015	125.318679875
9	1327820	242.644702439	253.119418497
9	1328592	242.803787433	17.02967269
9	1328960	242.897053544	3.172755428
9	1334082	243.759348186	318.505025867
9	1336111	244.062696611	27.816738297
9	1337851	244.325537547	132.923039625
9	1339100	244.572514536	1039.567250083
9	1339397	244.62364282	592.109707714
9	1340334	244.810642087	163.522947881
9	1340499	244.842409603	520.130321259
9	1340706	244.87819082	59.335945928
9	1340749	244.883690781	527.831419945
9	1341049	244.929067074	355.409795242
9	1341616	245.031355103	77.434581396
9	1341908	245.091553636	208.570995488
9	1341962	245.102553329	39.425322925
9	1343472	245.470172975	181.715376903
9	1346570	246.109241073	13.319916212
9	1346883	246.158927589	102.864312978
9	1347761	246.320177755	248.629201809
9	1347951	246.355245809	34.275193048
9	1348042	246.382437099	9.056447261
9	1348487	246.501378313	28.379568852
9	1348938	246.643192981	426.888173954
9	1349081	246.678466302	15.622285676
9	1350002	246.848023296	30.980433312
9	1350436	246.912694006	37.217453894
9	1351167	247.074574815	695.579249069
9	1351359	247.117037786	432.843863392
9	1353882	247.510903509	308.717360645
9	1355002	247.650354295	31.083627326
9	1356695	247.978366708	688.913518693
9	1357185	248.072458541	273.222861334
9	1360808	248.766659395	7.524309543
9	1361523	248.847500707	21.609458763
9	1363690	249.139953194	312.656434143
9	1364817	249.320813826	201.937674165
9	1365679	249.493495609	39.474507765
9	1365763	249.516215821	249.175881862
9	1365858	249.539710124	167.599102692
9	1366471	249.669355673	50.12012905
9	1366905	249.756548704	172.850660551
9	1368017	249.993784177	242.416432298
9	1368803	250.156286634	46.939103779
9	1370220	250.4649915	308.903921605
9	1370494	250.512694884	343.184778452
9	1371061	250.616473487	87.610025505
9	1371143	250.632343648	63.478789378
9	1371811	250.73499399	370.746222596
9	1373043	250.974764639	363.892803801
9	1374397	251.101937414	103.167507437
9	1376627	251.371647589	198.771023659
9	1377062	251.407259028	126.03587494
9	1378870	251.595429856	68.631607794
9	1379994	251.712395623	403.381284781
9	1380460	251.759162832	59.159259383
9	1383224	252.149701653	333.685535432
9	1383999	252.252043376	148.649970236
9	1387280	252.87594167	331.610843585
9	1387336	252.884439278	223.38495513
9	1387416	252.898005881	371.772313439
9	1388570	253.040462869	110.638579874
9	1390053	253.25588572	10.910793003
9	1390977	253.459883483	22.150842766
9	1391008	253.464973195	46.933675045
9	1392950	253.822067119	114.898295255
9	1393145	253.867731289	154.568576238
9	1395527	254.298539853	392.544805936
9	1397809	254.628901407	86.810361843
9	1398209	254.688833218	348.857037936
9	1398825	254.789612164	142.978324218
9	1400470	255.081539478	20.704968689
9	1400703	255.124865251	189.796333904
9	1400957	255.16632751	103.287834391
9	1403372	255.583914689	337.022304057
9	1403496	255.600633503	307.173335917
9	1404402	255.793693492	176.5902829
9	1404734	255.868539493	48.188233698
9	1406222	256.164581403	139.661326142
9	1408484	256.547247891	82.926417017
9	1410168	256.920466106	387.519598054
9	1410588	257.011475096	253.226148088
9	1411646	257.197473965	155.212323953
9	1411833	257.23598108	26.942270885
9	1411892	257.247096879	763.604636327
9	1412484	257.353900004	364.751225433
9	1413992	257.579196516	506.376399643
9	1415188	257.719317164	97.462999424
9	1416685	257.962810581	987.474201539
9	1417901	258.203700753	68.556706531
9	1418909	258.430417959	42.886330732
9	1419363	258.519400934	4.355847708
9	1419826	258.607588065	7.832179103
9	1419943	258.633926904	48.82676463
9	1420068	258.654025229	306.00972107
9	1421000	258.800837305	55.840753269
9	1421223	258.845953824	172.664620319
9	1421500	258.891275531	163.878303716
9	1421733	258.92823468	3.86352238
9	1422624	259.119921716	189.325322528
9	1423951	259.441669587	662.922447268
9	1424227	259.505968905	248.522411695
9	1424667	259.621976197	157.30494517
9	1425902	259.958731233	107.927423309
9	1425917	259.958794897	69.375020713
9	1425932	259.959288407	55.676831897
9	1427308	260.215894847	717.270537912
9	1427990	260.324204152	362.561689353
9	1428747	260.475707964	45.691253928
9	1429029	260.528836173	89.000270175
9	1429999	260.732305108	229.182457358
9	1430575	260.858917505	106.990903429
9	1430612	260.863380107	12.606137982
9	1430712	260.888101078	41.646463752
9	1434101	261.369979841	160.959378118
9	1436185	261.707279556	45.737512214
9	1436981	261.856006933	101.064698313
9	1438568	262.105948541	182.277361687
9	1441800	262.662221556	1.951003891
9	1442588	262.808953348	37.251630932
9	1442747	262.841931896	63.080457553
9	1443546	262.9941402	106.241049075
9	1445144	263.319022025	151.414539381
9	1445378	263.367265073	500.676582933
9	1446637	263.601462275	122.204642201
9	1447848	263.828096862	11.365763543
9	1449383	264.104693681	191.892972854
9	1450586	264.354724211	149.055040261
9	1450780	264.399634753	202.062494983
9	1450820	264.40633434	122.583886239
9	1450863	264.414187347	118.160440859
9	1450976	264.437157675	109.901416345
9	1452139	264.799862318	166.786500198
9	1452388	264.860375394	194.529559119
9	1452481	264.880353782	164.689412289
9	1452775	264.942503112	156.451619357
9	1453458	265.106244436	99.494676133
9	1453483	265.110007965	245.255991417
9	1454126	265.263206065	664.380544841
9	1456298	265.67729068	234.662943132
9	1458283	266.072215889	539.382398073
9	1458387	266.084778373	335.727118696
9	1458795	266.1634789	32.677899318
9	1459061	266.215754762	179.240923251
9	1460347	266.500044341	282.123690436
9	1460577	266.553827725	22.299657642
9	1460625	266.561626924	83.258523652
9	1461180	266.691430793	54.852101591
9	1461287	266.706181101	223.832663807
9	1462358	266.901613241	10.967818744
9	1463604	267.170815221	49.297495889
9	1463713	267.191892075	31.820696794
9	1465729	267.464191858	241.27917352
9	1469749	268.210211546	66.268670648
9	1475484	269.387230168	133.571497654
9	1477164	269.740873142	589.073348345
9	1477832	269.887408947	12.297458046
9	1477881	269.894821252	215.816470788
9	1478749	270.04830703	234.923366712
9	1480788	270.399236287	276.420758851
9	1482170	270.674483454	68.43711386
9	1482777	270.806606201	351.983126939
9	1482898	270.824858646	552.506702348
9	1483586	270.995969605	48.941396299
9	1484063	271.10485975	90.344517029
9	1485183	271.354341767	369.597160146
9	1485543	271.434563108	179.44503463
9	1487356	271.743689098	316.917278199
9	1488119	271.866013369	11.264155553
9	1489777	272.219008668	359.586839848
9	1490687	272.375495286	144.070378484
9	1491104	272.44308079	119.2936798
9	1492466	272.70284157	197.954696415
9	1492942	272.815500089	558.982011729
9	1494679	273.139035445	190.150569562
9	1500138	274.148272028	558.43325703
9	1500722	274.252675142	162.173435349
9	1501897	274.469113702	115.283751608
9	1502364	274.567520581	47.802459988
9	1503526	274.816454812	321.348901029
9	1504343	274.96423873	162.871740855
9	1505228	275.127931207	192.502849667
9	1505353	275.14424874	38.406546807
9	1506915	275.417717874	64.65463592
9	1507038	275.437936039	65.21208935
9	1507465	275.527751284	147.762814929
9	1508857	275.865357315	195.457990769
9	1508957	275.893151579	231.95508801
9	1509631	276.068541498	7.036589316
9	1511913	276.699108507	49.254746244
9	1512762	276.909066263	100.646498653
9	1512998	276.974153126	5.871893653
9	1513035	276.984239001	89.911426882
9	1513671	277.189857736	916.772024445
9	1514721	277.425659246	7.21375795
9	1515512	277.590703542	153.686676389
9	1516363	277.75453807	310.167051714
9	1519017	278.317026295	267.744046111
9	1520198	278.573709987	233.853523886
9	1521124	278.762848583	427.066149915
9	1521833	278.956019174	46.521238173
9	1522479	279.119984049	416.511253813
9	1525342	279.84356384	232.707307483
9	1525885	279.937646255	164.731981519
9	1526677	280.110531376	393.047274902
9	1526874	280.152298229	180.142534653
9	1526979	280.177254533	326.392458344
9	1527102	280.203581723	352.209619682
9	1527183	280.224734186	9.003115848
9	1527859	280.39465952	139.9553142
9	1528142	280.46406934	120.531289692
9	1529215	280.729193199	184.535140534
9	1529296	280.744024587	1.473392633
9	1529510	280.801630115	46.79254576
9	1529758	280.851051987	206.820667683
9	1530712	281.010208108	125.552044465
9	1531282	281.115159806	96.423383173
9	1531319	281.121633863	541.217432657
9	1531446	281.138768097	377.057422623
9	1534806	281.761568132	47.883702264
9	1535025	281.808258508	438.639614127
9	1535935	281.972718529	9.608072179
9	1538116	282.428495892	139.69898199
9	1539618	282.684944933	83.608447422
9	1541215	282.886428702	40.097623643
9	1545872	283.735840918	426.447821722
9	1546292	283.824967157	54.012280502
9	1547460	284.075627117	213.404975674
9	1549665	284.559849528	58.171455034
9	1550184	284.695968361	74.145153469
9	1550843	284.854277877	179.160128593
9	1551234	284.934427829	381.145979245
9	1551695	285.022714807	200.490032735
9	1552353	285.176658838	27.228455222
9	1552933	285.315847153	437.556212324
9	1553378	285.425087928	36.532705262
9	1553942	285.522777818	2.285756849
9	1554528	285.64864084	32.906325819
9	1554873	285.723336295	237.971543248
9	1555403	285.82618112	191.779670671
9	1555686	285.887990539	76.978562549
9	1556373	285.987693671	219.679766738
9	1560064	286.800470085	333.78075347
9	1561158	287.03151864	600.957907483
9	1561340	287.069991739	475.88488929
9	1561735	287.164866881	238.902558827
9	1564469	287.650443205	265.292139073
9	1567892	288.530077008	47.231027985
9	1568013	288.553091714	680.474413074
9	1569089	288.801405297	90.360657606
9	1570798	289.143000403	88.48780865
9	1572125	289.410531913	27.776489149
9	1572576	289.516211338	19.694711873
9	1574512	289.858847055	158.920573139
9	1575340	290.042834448	41.909473983
9	1575782	290.138083673	208.570692796
9	1576260	290.240946951	38.881796663
9	1581096	291.268585343	179.02127483
9	1582105	291.555138506	127.462892712
9	1582226	291.593943087	51.161588891
9	1584278	292.008810783	57.11945939
9	1584432	292.043611664	159.003398948
9	1585057	292.185229883	24.63610214
9	1588441	292.784169323	91.725689432
9	1589276	292.963716759	520.10987404
9	1589708	293.052062572	158.13197655
9	1590820	293.299418623	60.821491966
9	1590956	293.349504383	113.143182541
9	1591993	293.614044207	78.624188931
9	1592509	293.72115533	120.499981329
9	1593213	293.84095071	462.006978013
9	1593520	293.90943895	27.96871945
9	1593918	293.99249971	86.214774441
9	1595285	294.225759006	620.914907158
9	1595495	294.268805284	402.288863924
9	1596995	294.524031847	68.273302857
9	1597666	294.649225919	200.918772627
9	1597802	294.686871549	693.215339653
9	1597828	294.692699709	509.685918899
9	1598066	294.737643348	229.3391106
9	1598338	294.805388038	8.041835278
9	1598476	294.834769096	363.7897965
9	1601213	295.3258311	469.619536873
9	1602248	295.52474292	231.665713601
9	1603744	295.728847795	62.019924377
9	1604891	295.904669625	29.143247606
9	1606203	296.174166864	588.113149191
9	1606497	296.225373951	350.208352469
9	1606975	296.33962709	50.232780072
9	1608383	296.691346756	306.481762739
9	1609486	296.889499682	329.821759755
9	1610562	297.193525706	181.074081579
9	1612601	297.627021983	127.663272888
9	1613033	297.723112634	55.33868767
9	1613084	297.734456933	32.756774038
9	1613294	297.784693336	173.101249814
9	1613309	297.784775958	136.889581289
9	1613909	297.922802467	9.095952537
9	1614346	298.004329273	429.155215695
9	1614732	298.104620926	71.114720303
9	1614851	298.126394306	123.904789731
9	1615031	298.181611928	133.928712911
9	1615107	298.195936834	77.193286132
9	1615276	298.243631386	752.053792549
9	1615700	298.343966778	203.473721853
9	1617676	298.787107647	100.136779999
9	1618409	298.90871667	84.918183578
9	1619696	299.140921101	103.035898869
9	1620846	299.381621053	307.23285697
9	1623365	299.880552697	71.512151113
9	1623452	299.905057636	271.459712828
9	1624321	300.113831316	38.175479142
9	1624884	300.26943268	36.311205132
9	1627508	300.884245836	65.206643968
9	1627760	300.929450797	232.610399229
9	1628041	301.001676276	142.378215166
9	1628583	301.118593252	9.055722164
9	1629540	301.352565381	139.469753439
9	1629622	301.371877526	180.043288546
9	1630180	301.508908013	137.676905668
9	1630229	301.520054828	91.239326412
9	1632112	301.884907585	51.668008953
9	1632531	301.975001712	886.130927972
9	1633551	302.27436964	153.694165745
9	1633689	302.317025581	110.954245363
9	1633909	302.363499188	116.718438381
9	1635077	302.564438414	190.584132143
9	1635253	302.588075722	416.649980574
9	1639009	303.240017586	86.861685861
9	1639925	303.40943961	336.302139411
9	1640824	303.635643439	20.193700122
9	1641177	303.728044337	100.886925116
9	1646000	304.970385406	16.940971279
9	1646302	305.055167968	79.357786502
9	1646391	305.083914244	29.129921908
9	1646664	305.140090904	126.019413654
9	1646864	305.187929495	223.810257335
9	1649026	305.62333545	223.63756174
9	1649170	305.660607756	48.657647894
9	1649842	305.869601195	158.511451696
9	1650916	306.197534456	29.667336633
9	1651282	306.2977512	168.62000764
9	1651523	306.355339973	159.924996963
9	1655027	307.175752013	187.456720864
9	1655083	307.187664146	236.942510114
9	1655994	307.36571253	2.434104505
9	1656191	307.394002563	161.975198135
9	1656500	307.4357653	107.458119877
9	1657767	307.65640596	156.959308186
9	1658006	307.708767192	82.189432432
9	1658220	307.742932048	478.140426396
9	1658657	307.82843026	202.674298608
9	1659459	308.027807074	84.142175673
9	1659969	308.176958111	87.635508578
9	1661193	308.432610306	40.105532854
9	1663813	308.884062216	150.733438692
9	1664726	309.088651136	51.495547331
9	1666314	309.425701102	183.748254947
9	1668143	309.928111128	89.507747493
9	1668589	310.057455536	350.625558084
9	1669126	310.192057551	363.451176887
9	1669233	310.213614479	177.524781068
9	1670957	310.589227422	623.364696551
9	1671323	310.670432395	7.397357045
9	1671613	310.72327991	15.113477301
9	1673099	310.965379712	57.302560873
9	1673128	310.966522155	47.058359056
9	1673303	310.985645915	237.592031643
9	1673556	311.013690376	259.37330612
9	1673873	311.057870515	41.435405234
9	1675235	311.385947469	117.210527596
9	1675944	311.531231684	240.131465621
9	1677192	311.794565988	62.650869658
9	1678393	312.034237304	171.720054685
9	1679196	312.210824596	223.180822832
9	1679211	312.211914387	107.14007521
9	1679584	312.293422095	144.229433067
9	1679746	312.327639831	26.690128766
9	1681006	312.579150434	388.566471576
9	1682463	312.92153087	37.233956866
9	1682520	312.930944598	268.16909911
9	1684981	313.41976163	143.941505466
9	1684996	313.420788556	52.354046333
9	1686116	313.638575434	565.280983388
9	1687089	313.831648069	26.223056217
9	1688348	314.070279567	225.143837452
9	1692494	314.804231792	55.55453292
9	1692880	314.877971299	407.841682825
9	1694986	315.296677696	135.178614028
9	1695754	315.465855871	369.248726655
9	1696093	315.531744058	131.649282648
9	1696996	315.744120515	344.301547545
9	1698436	316.09873616	63.421243921
9	1698604	316.131134215	238.696761808
9	1703373	317.394497594	109.937191454
9	1704752	317.69321778	639.670605376
9	1705881	318.006628303	9.281203955
9	1706155	318.096731846	142.356241587
9	1706514	318.175300855	389.828156741
9	1706593	318.189881658	10.604480823
9	1706731	318.21861423	116.315719122
9	1706862	318.247756894	10.236818849
9	1707285	318.313641941	260.959560708
9	1709798	318.825486386	202.529418251
9	1709904	318.843080345	326.782850109
9	1712179	319.23838973	7.23484169
9	1712988	319.444492677	79.343482564
9	1713051	319.460244045	72.620610819
9	1713562	319.542302272	77.681711338
9	1714421	319.755570038	238.690183346
9	1715157	319.939490548	135.078255025
9	1715848	320.080666629	149.900299814
9	1716103	320.123131897	1115.549820467
9	1717185	320.328111972	172.275144267
9	1717425	320.372132763	26.452156937
9	1719256	320.693477882	192.854162794
9	1720319	321.004518913	111.448145291
9	1721227	321.222752314	46.396515736
9	1721432	321.27114221	95.818820458
9	1721920	321.396995684	58.504767957
9	1722867	321.664659327	14.043066229
9	1723003	321.706102815	330.664136474
9	1723383	321.779101745	93.058201923
9	1723672	321.850340334	133.926049361
9	1723785	321.881350503	110.278509895
9	1724002	321.929134806	194.462638146
9	1726199	322.380674283	78.068803726
9	1727999	322.686276896	28.031269376
9	1729158	322.906461145	532.393239243
9	1731843	323.453270027	95.005227175
9	1732324	323.535200835	113.860560581
9	1732594	323.5943482	170.204093065
9	1734187	323.905926213	127.262930864
9	1734535	323.974301534	92.392309233
9	1734652	323.993633041	22.881908186
9	1735482	324.181901673	415.753339309
9	1737158	324.647795743	165.81972415
9	1737774	324.772096337	89.602961324
9	1738150	324.85431439	255.205350599
9	1738506	324.933758461	467.171918121
9	1741489	325.583113202	217.123208861
9	1741927	325.700246018	110.105396551
9	1742307	325.788938363	741.416613898
9	1743195	325.942449036	26.570846651
9	1743258	325.954283085	178.196689627
9	1744844	326.206891888	333.394070312
9	1746625	326.570660365	29.206878833
9	1746700	326.595431748	230.787829965
9	1747554	326.811756915	421.014080569
9	1747577	326.815162989	83.497110341
9	1747850	326.875023884	436.948078156
9	1748057	326.940632586	197.880509755
9	1748114	326.958200161	135.462313561
9	1748317	327.019099542	7.324620065
9	1748493	327.06561627	62.299987627
9	1749055	327.225272333	442.547456209
9	1749366	327.305725062	10.197829197
9	1749773	327.395554433	7.107493879
9	1750822	327.600239453	416.738614504
9	1752405	327.961027775	39.452256402
9	1752542	327.998344567	50.847777618
9	1752937	328.111304284	97.199586092
9	1753148	328.180806901	130.302709055
9	1753234	328.196617922	1230.962835646
9	1754215	328.417538894	136.549145274
9	1754311	328.43794734	206.896491014
9	1754698	328.534854843	45.375484274
9	1754887	328.57034053	777.053656896
9	1755547	328.731129674	346.094187511
9	1755983	328.82468209	22.094478803
9	1756798	329.03270585	815.973589301
9	1758269	329.426333662	549.348316332
9	1758364	329.441686662	81.24688436
9	1759555	329.709172285	230.674057505
9	1759972	329.783954657	27.257072983
9	1760077	329.811111551	139.706748417
9	1763500	330.443065125	67.314608875
9	1768005	331.349911076	56.512964921
9	1770880	331.919691313	275.394084606
9	1771963	332.19614995	33.513332334
9	1772473	332.310487095	58.178729318
9	1772663	332.347672818	537.56737674
9	1774399	332.789973685	93.921743983
9	1774468	332.799737778	3.844429269
9	1774706	332.858985558	352.836193483
9	1774929	332.89237423	305.839399224
9	1775606	333.024855855	192.735999034
9	1775863	333.072893087	1130.735304324
9	1776667	333.257461454	450.580499885
9	1778090	333.588592606	50.453204917
9	1780957	334.103221321	45.175851077
9	1781897	334.285223673	321.664244344