version 2
run ChordDht-6-20211204-01:09:20-3224
attr Lifetime 700s
attr configname ChordDht
attr datetime 20211204-01:09:20
attr experiment ChordDht
attr inifile configs.ini
attr iterationvars $Lifetime=700s
attr iterationvars2 "$Lifetime=700s, $repetition=0"
attr measurement $Lifetime=700s
attr network oversim.underlay.simpleunderlay.SimpleUnderlayNetwork
attr processid 3224
attr repetition 0
attr replication #0
attr resultdir results
attr runnumber 6
attr seedset 6

vector 37  SimpleUnderlayNetwork.globalObserver.globalStatistics  "GlobalNodeList: Number of nodes"  ETV
vector 38  SimpleUnderlayNetwork.globalObserver.globalStatistics  "GlobalDhtTestMap: Number of stored DHT entries"  ETV
vector 39  SimpleUnderlayNetwork.globalObserver.globalStatistics  "LifetimeChurn: Session Time"  ETV
vector 40  SimpleUnderlayNetwork.globalObserver.globalStatistics  "LifetimeChurn: Time between creates"  ETV
vector 41  SimpleUnderlayNetwork.globalObserver.globalStatistics  "LifetimeChurn: Time between deletes"  ETV
37	1218877	200	1022
37	1591946	250	1025
37	2005229	300	1022
37	2408085	350	1016
37	2765686	400	990
37	3162927	450	1004
37	3527734	500	1003
37	3921541	550	1005
37	4292852	600	1005
37	4664852	650	1015
37	5049090	700	1031
37	5431555	750	1036
37	5808633	800	1023
37	6180019	850	1023
37	6563832	900	1032
37	6936453	950	1009
37	7294453	1000	1022
37	7642930	1050	1008
37	8005958	1100	1021
37	8388936	1150	1040
38	1218878	200	1507
38	1299485	210	1691
38	1383332	220	1847
38	1452760	230	1998
38	1515944	240	2149
38	1591947	250	2291
38	1675728	260	2471
38	1759202	270	2653
38	1840961	280	2809
38	1925670	290	2968
38	2005230	300	3118
38	2091548	310	3254
38	2172726	320	3425
38	2255813	330	3605
38	2339852	340	3775
38	2408086	350	3919
38	2472075	360	4071
38	2544215	370	4206
38	2617931	380	4376
38	2690771	390	4552
38	2765687	400	4726
38	2844260	410	4779
38	2923925	420	4815
38	3000783	430	4800
38	3083324	440	4779
38	3162928	450	4748
38	3240028	460	4760
38	3314056	470	4786
38	3378526	480	4786
38	3452910	490	4789
38	3527735	500	4788
38	3605648	510	4743
38	3681624	520	4781
38	3762626	530	4801
38	3839484	540	4777
38	3921542	550	4779
38	3999971	560	4759
38	4077011	570	4734
38	4155282	580	4768
38	4226230	590	4774
38	4292853	600	4773
38	4367605	610	4768
38	4441611	620	4759
38	4515782	630	4753
38	4589212	640	4744
38	4664853	650	4773
38	4737035	660	4745
38	4817530	670	4749
38	4893862	680	4757
38	4973906	690	4761
38	5049091	700	4745
38	5124793	710	4768
38	5196482	720	4750
38	5267477	730	4721
38	5350644	740	4755
38	5431556	750	4788
38	5503395	760	4771
38	5583466	770	4770
38	5661980	780	4794
38	5732030	790	4786
38	5808634	800	4776
38	5887891	810	4834
38	5966885	820	4786
38	6038968	830	4784
38	6106631	840	4795
38	6180020	850	4798
38	6256948	860	4806
38	6338288	870	4825
38	6412464	880	4797
38	6490780	890	4772
38	6563833	900	4790
38	6638836	910	4808
38	6713746	920	4822
38	6788420	930	4819
38	6863775	940	4829
38	6936454	950	4801
38	7002377	960	4818
38	7072101	970	4844
38	7144237	980	4821
38	7219193	990	4826
38	7294454	1000	4814
38	7368739	1010	4807
38	7433546	1020	4829
38	7500511	1030	4841
38	7575269	1040	4828
38	7642931	1050	4804
38	7718817	1060	4810
38	7792304	1070	4807
38	7857457	1080	4792
38	7930704	1090	4809
38	8005959	1100	4789
38	8084256	1110	4762
38	8154953	1120	4798
38	8235868	1130	4788
38	8312517	1140	4808
38	8388937	1150	4811
38	8461635	1160	4803
38	8543888	1170	4808
38	8615829	1180	4802
38	8683197	1190	4782
39	1219430	200.069681939	17.011147571
39	1229615	201.293688625	2805.392170487
39	1242545	202.959913406	1116.569618273
39	1253169	204.297229899	289.83817768
39	1254654	204.506439909	575.396362142
39	1267747	206.156620302	598.441047557
39	1272775	206.79852947	309.708969307
39	1274808	207.019838936	665.685575583
39	1275543	207.104197936	1274.687584873
39	1294290	209.317154676	655.600221669
39	1297822	209.764969295	283.136087156
39	1302623	210.505156532	1710.790946038
39	1309990	211.368953514	120.369560059
39	1319625	212.718724577	619.486794155
39	1324434	213.391165231	224.327556824
39	1325087	213.474070774	282.295892816
39	1332859	214.447349258	13.002218837
39	1333191	214.47880854	148.06406422
39	1339917	215.146241638	1112.697359387
39	1344950	215.637219234	386.084873326
39	1361707	217.485216606	1523.358639009
39	1362539	217.59646171	298.648450647
39	1368175	218.334399273	119.165179894
39	1368618	218.402790772	605.350653192
39	1368869	218.43027205	88.336503094
39	1375512	219.257868754	27.082565702
39	1376981	219.381681426	1567.26218055
39	1399373	221.86526382	250.33842587
39	1401338	222.186527459	378.722450424
39	1405914	222.881058437	3148.546469628
39	1407068	223.0499145	1009.770717752
39	1408723	223.286986438	521.239900914
39	1417758	224.623279228	973.60818281
39	1418409	224.713586965	12.859505276
39	1421288	225.145783387	782.437053441
39	1422862	225.439328767	131.292596155
39	1429128	226.290509183	681.008287623
39	1430241	226.462537936	145.89432015
39	1432752	226.830326573	51.719313784
39	1436159	227.380302934	717.236526175
39	1437581	227.690736416	2793.347410584
39	1445211	228.794505987	62.154145939
39	1449046	229.385209116	523.792488651
39	1455385	230.471234422	347.698067313
39	1461119	231.453243132	450.606331292
39	1467367	232.40481114	749.020010662
39	1470954	232.902303067	1395.11940935
39	1475235	233.557153735	160.991713951
39	1483192	234.684273034	1791.072855569
39	1490412	235.538613542	2890.947656259
39	1497768	236.791281655	426.771378621
39	1498627	236.987316701	159.769462529
39	1499005	237.039082629	972.959801163
39	1502809	237.794958243	805.940468277
39	1508440	238.779600241	535.616010198
39	1515719	239.963913191	1066.864941555
39	1517702	240.275126973	749.323656974
39	1528852	241.807790382	626.962430292
39	1530169	241.985046323	300.485876837
39	1535155	242.65816767	50.829686147
39	1538178	243.04976833	44.261055852
39	1540033	243.305773138	920.870582226
39	1551867	244.75747111	110.667747585
39	1556839	245.459457432	47.958562025
39	1562450	246.172569203	1200.056473495
39	1569262	247.109196567	532.390960406
39	1570076	247.195415811	371.300200235
39	1572344	247.469392208	98.769751324
39	1580810	248.548025113	754.640862018
39	1584133	248.981564436	458.046039671
39	1586550	249.268462816	202.5243902
39	1586801	249.296500139	1226.052894123
39	1590719	249.812020834	366.391792225
39	1597085	250.737591697	1844.533961339
39	1597536	250.80646	887.972807537
39	1618904	253.264574364	1581.043650545
39	1624320	253.951949684	330.68470035
39	1628078	254.493656288	107.881873086
39	1630599	254.772657487	1622.350694755
39	1635230	255.280107064	1542.496897886
39	1645664	256.595818138	627.439984467
39	1646054	256.648835144	690.658841096
39	1652416	257.36271339	272.603897387
39	1657963	257.965303185	921.279020772
39	1658340	258.006183607	49.824370222
39	1660827	258.31865101	892.466759524
39	1664499	258.809201357	19.314945611
39	1676629	260.110441141	189.059571488
39	1684899	260.931883913	1732.986432665
39	1689639	261.621507214	1389.60537208
39	1695012	262.259251112	1935.851105081
39	1699036	262.674719343	1336.947312276
39	1702186	262.992704447	1307.794045175
39	1717144	265.002441684	311.905925868
39	1732578	266.829476717	114.304904784
39	1744495	268.11858063	2055.5449536
39	1752028	269.136142711	728.085191377
39	1754448	269.440191186	591.733643985
39	1758092	269.858029133	202.694649273
39	1761394	270.316790733	1265.19213736
39	1763429	270.617690693	454.008225486
39	1771397	271.445925915	1119.623735015
39	1775508	271.830960549	747.497485996
39	1776526	271.934515085	1133.038847093
39	1777239	272.016875461	609.933401411
39	1801309	275.301113539	677.060727588
39	1802246	275.40854562	1389.709038428
39	1805378	275.781104995	379.907657407
39	1806867	275.942718122	147.086818337
39	1811149	276.432989451	912.415004799
39	1814996	276.875992639	2213.20609071
39	1819663	277.410867419	246.714001031
39	1819826	277.428395863	2833.486092063
39	1824444	277.93152899	2615.874894939
39	1830951	278.637316027	677.326791813
39	1839737	279.840441614	947.278692823
39	1839755	279.840573993	427.968367708
39	1856190	281.818715372	219.864322405
39	1899849	287.059609269	457.214740814
39	1905119	287.672295955	424.047827666
39	1907608	287.891335759	126.39425517
39	1918900	289.260162879	1121.75052373
39	1925981	290.035261162	387.763779841
39	1940380	291.855371338	983.976815575
39	1950191	293.137837479	366.442413835
39	1950309	293.156621567	2313.865237631
39	1951112	293.259909554	931.621458467
39	1951912	293.373527726	1118.308367113
39	1960175	294.362121321	29.782116634
39	1961630	294.537600358	290.144040314
39	1973597	295.888411512	105.497442034
39	1977463	296.347068534	1727.786575282
39	1978475	296.497585442	371.002148159
39	1978917	296.562403939	1381.530673231
39	1979973	296.709614194	203.975493475
39	1985644	297.482164622	867.456856528
39	1991571	298.228773922	2680.181234162
39	2006147	300.108734457	352.289111344
39	2006473	300.14320939	587.748508101
39	2011223	300.656276944	928.918290221
39	2014522	300.972763735	333.935017118
39	2020187	301.473466196	383.187873205
39	2027124	302.125364768	6.082202321
39	2027961	302.223621621	59.625808674
39	2028673	302.307709333	1753.907165409
39	2033464	302.885608688	64.633735661
39	2037192	303.318522644	1141.625601381
39	2050202	304.777522247	1206.627357789
39	2052766	305.023385606	411.971212156
39	2053902	305.126644427	738.551829927
39	2063304	306.225670053	87.687519157
39	2070602	307.166914533	395.528214244
39	2082018	308.794179576	481.088077843
39	2083934	309.043582096	1089.672337023
39	2100733	311.228053435	742.89741232
39	2105145	311.747568598	1250.949263516
39	2107451	312.045351152	706.417853144
39	2108377	312.151241303	391.967926371
39	2121341	313.777072747	668.067668178
39	2121973	313.846978517	878.141167397
39	2124198	314.107138858	165.588299154
39	2138143	315.808801873	1445.079582359
39	2146349	316.732204703	2004.263570313
39	2147300	316.829932458	1346.16177101
39	2152791	317.369026911	269.743203787
39	2168051	319.37859234	1170.639472016
39	2174292	320.265152921	75.045414184
39	2179319	320.837980904	91.385676867
39	2185476	321.657495425	80.809109708
39	2194067	322.574854739	15.415497963
39	2198345	323.020055585	828.623932797
39	2199086	323.111417422	685.55892629
39	2201628	323.452603696	608.176908026
39	2204980	323.853072517	258.67246583
39	2211962	324.671367132	107.684395218
39	2215412	325.071595386	432.691600669
39	2220284	325.685821328	271.250564332
39	2220745	325.747349281	862.449028794
39	2222052	325.935569446	873.703316933
39	2225207	326.413640705	847.444791699
39	2230965	327.043662728	1237.6357561
39	2234111	327.408970002	785.680468884
39	2236123	327.653077561	919.113643759
39	2240084	328.138500136	587.79360153
39	2244951	328.821032494	351.851844122
39	2272849	332.210987765	235.814462074
39	2273992	332.411120947	1499.709636069
39	2279893	333.238330517	63.479349499
39	2290606	334.549100081	420.500435069
39	2295012	335.116438163	45.430557013
39	2295324	335.153470192	2547.123723313
39	2299645	335.630353218	1279.176148032
39	2316385	337.40829336	36.119905106
39	2317673	337.550417182	610.527252982
39	2323064	338.15846104	2058.462228634
39	2330848	339.115972912	607.86309438
39	2335901	339.591467865	340.097643514
39	2349595	341.409643069	1136.044879408
39	2362006	343.055127988	279.753649072
39	2365753	343.653406784	293.947237972
39	2367573	343.950710428	2082.138140299
39	2383070	346.058881404	343.818327692
39	2384849	346.299421866	854.535413636
39	2392308	347.307636248	353.353070815
39	2398019	348.202904693	277.719376147
39	2404023	349.185886084	1366.463650426
39	2418512	351.714172299	372.27482839
39	2426437	353.126152286	1046.64056386
39	2427678	353.307843881	1048.638645387
39	2428463	353.458349691	616.680314756
39	2429454	353.623814919	1892.45663906
39	2429480	353.625080494	244.418835749
39	2431117	353.855683652	140.869262641
39	2433996	354.220372815	283.892420656
39	2434788	354.320224487	487.275576229
39	2436465	354.544461265	264.2715705
39	2448020	355.891567971	665.427749875
39	2455044	357.081317546	30.129184269
39	2462699	358.30540144	94.768397878
39	2471703	359.928183896	48.019363431
39	2475890	360.638147527	427.417216055
39	2478637	360.934213894	316.261852226
39	2485228	361.854280183	1636.153170145
39	2494548	363.239149213	393.216767215
39	2498695	363.799297138	491.927550355
39	2498763	363.804871012	99.107152288
39	2502449	364.205044243	1227.495173658
39	2506084	364.533364179	2207.875298809
39	2508353	364.725643778	429.929594917
39	2539723	369.273622793	140.350105612
39	2541609	369.554652195	1237.291606764
39	2545797	370.229845913	408.860989596
39	2552834	371.067634166	1381.077553196
39	2564073	372.551328175	184.746349391
39	2566885	372.890100113	648.55361069
39	2569865	373.316456817	163.513195216
39	2573768	373.96083249	143.015287544
39	2594955	376.777280017	1564.280134521
39	2602123	377.713359862	236.572800404
39	2625624	381.020216578	173.138842195
39	2627473	381.366005276	3213.125811601
39	2631338	382.023921765	595.477985096
39	2636234	382.485255947	831.479219737
39	2646721	383.922656848	557.623159845
39	2654574	384.949742657	474.225417626
39	2657055	385.348472045	18.069082317
39	2675718	387.779469581	248.23941949
39	2682975	388.898414566	150.150212085
39	2688728	389.644494502	205.812945499
39	2699002	391.096115364	249.493597545
39	2703612	391.615240553	80.887772198
39	2704210	391.692670361	85.42404394
39	2707669	392.165167991	148.135778255
39	2717582	393.481024864	613.168555298
39	2721709	394.080196927	311.510798986
39	2727941	394.778431441	309.075890188
39	2734974	395.670031255	718.650470952
39	2742367	396.776259753	9.779472665
39	2750006	397.722286526	1029.343818359
39	2754812	398.324485477	333.861524425
39	2761373	399.363697075	1426.24954375
39	2762745	399.566153809	1864.715983593
39	2766531	400.122117677	1545.433859808
39	2766696	400.138463922	981.120012543
39	2767160	400.201497697	1577.353030639
39	2767752	400.278770036	602.076726533
39	2769666	400.524000521	181.68444106
39	2773955	401.025952524	48.248789724
39	2786452	402.344846363	45.955201052
39	2789821	402.758118436	458.873656574
39	2802615	404.429292238	393.585885576
39	2802696	404.440063954	237.8625228
39	2819484	406.679531296	1073.265531995
39	2822010	407.007547198	476.909103275
39	2827061	407.623499126	287.344356764
39	2829302	407.917026993	354.337422689
39	2831724	408.241969538	848.09450074
39	2835975	408.926825366	213.702276604
39	2847402	410.434324089	1050.623525156
39	2850436	410.788632131	220.433037523
39	2852709	411.146200671	1740.577068878
39	2859480	412.080348319	641.425773242
39	2870556	413.554443329	734.532765936
39	2870759	413.581760751	473.280555937
39	2874530	414.07206368	13.964084003
39	2879899	414.795640045	747.784574667
39	2881850	415.046662563	1187.855868028
39	2885540	415.396658483	233.532012441
39	2887295	415.555932804	22.213073632
39	2891627	415.926122419	807.690945664
39	2898979	416.819564927	1126.074446989
39	2907633	417.85492964	329.251652002
39	2915092	418.746990763	455.178282612
39	2921395	419.606007783	3868.497509277
39	2929118	420.66599011	908.08532523
39	2935298	421.345516736	318.286816068
39	2944118	422.434809504	435.055217679
39	2946430	422.782374818	412.0137169
39	2950525	423.343956151	99.08800714
39	2952921	423.614070437	100.665780982
39	2954946	423.881960717	412.989156813
39	2958227	424.341599641	229.993041324
39	2959916	424.554050696	114.738889611
39	2963922	424.975495704	993.621512088
39	2972404	426.0449305	127.634586162
39	2979690	427.112195518	336.832318945
39	2983421	427.669252419	1834.511628351
39	2995638	429.316999703	333.56851166
39	3000882	430.004406047	25.391479138
39	3009428	431.048224875	862.581833368
39	3019062	432.097496709	408.001083019
39	3023625	432.768863202	98.64311755
39	3037264	434.428700161	460.847886953
39	3040170	434.79393869	1.346020809
39	3050535	436.051496279	486.177391252
39	3051405	436.151042647	250.18754895
39	3051715	436.183069168	389.087999111
39	3054809	436.569126924	232.499513823
39	3057156	436.827478947	1131.533289594
39	3057750	436.897921169	68.831792752
39	3060040	437.139280434	1590.517996102
39	3062478	437.34510152	3288.835417731
39	3083351	440.002171997	1045.006077264
39	3087273	440.54375351	318.259018608
39	3087547	440.567417483	32.753277551
39	3088879	440.682337553	2102.152468168
39	3091077	440.960220098	56.558127173
39	3096200	441.662688515	547.633105981
39	3098032	441.922364517	1797.297782365
39	3099345	442.089537447	384.23197281
39	3100863	442.2408314	646.31413736
39	3111990	443.3596544	51.672525896
39	3112307	443.407806662	413.932615901
39	3137146	446.571363142	1048.679418086
39	3138014	446.702446181	191.133981438
39	3139373	446.859231112	455.66177744
39	3152635	448.597611391	1222.174782557
39	3156209	449.127666858	27.723998415
39	3156807	449.177406266	1410.646715774
39	3178973	452.118382728	101.14040841
39	3180110	452.255263198	481.451575205
39	3183060	452.704431121	83.493806618
39	3187221	453.218322721	472.416426011
39	3197152	454.369144257	104.744241722
39	3200825	454.902655825	321.417346862
39	3202866	455.208844787	885.809728017
39	3207511	455.838109055	1808.282161527
39	3216249	457.004432271	1365.204977908
39	3216972	457.092577789	769.132329191
39	3219576	457.415799742	1062.536604377
39	3228196	458.666020775	1842.531444166
39	3229585	458.878790341	1892.52146466
39	3240087	460.006745845	257.148663355
39	3257102	462.444238734	202.674287285
39	3262405	463.257495421	491.793088864
39	3265953	463.788242787	1046.483104893
39	3267456	463.934742077	353.538911945
39	3269873	464.232848465	135.85934665
39	3279412	465.185075579	492.511049611
39	3284788	465.743741819	1280.076462364
39	3286402	465.924585077	223.776350829
39	3288329	466.165014278	249.24211091
39	3289406	466.346843513	1555.141078926
39	3292538	466.909523163	633.036968521
39	3325536	471.861977588	129.318759985
39	3328186	472.300232283	2365.988030946
39	3329444	472.549466676	644.765569527
39	3333987	473.104415695	762.568834301
39	3334310	473.150978132	448.423042989
39	3339801	473.991182897	1485.405563921
39	3342265	474.361593363	146.541993008
39	3342944	474.506626615	45.343876656
39	3353107	475.910287038	18.17698879
39	3368096	478.190524124	218.994039125
39	3377160	479.735276147	105.099343228
39	3394508	482.591900824	71.390498491
39	3401834	483.640661177	295.714148307
39	3402580	483.775258202	128.286060847
39	3405588	484.243611069	87.708544337
39	3406492	484.361631082	1492.159831795
39	3421586	486.013517591	10.815054988
39	3443459	488.845412555	399.164429005
39	3445512	489.092555638	784.056168275
39	3446500	489.208482395	1193.31644477
39	3448238	489.419554542	560.876180899
39	3451327	489.775639991	163.919826879
39	3462154	491.305916848	95.258038388
39	3467115	491.903044964	1104.880309397
39	3471494	492.375296196	540.457842964
39	3476645	493.088479071	154.205699193
39	3477079	493.144968879	348.55209655
39	3482759	494.036697609	100.781664693
39	3494164	495.449354776	38.423889936
39	3500970	496.315498116	966.973442449
39	3506314	497.089766773	59.07319906
39	3516233	498.37101087	640.791611482
39	3526444	499.856141362	6.892951284
39	3538747	501.465532398	29.872753683
39	3555131	503.553570198	1220.91615691
39	3556785	503.766525021	486.346985722
39	3557217	503.816718101	808.678393969
39	3560943	504.082207398	642.197932525
39	3564405	504.523561391	329.095051466
39	3574604	505.653148245	339.477478097
39	3575147	505.724577021	1389.412634043
39	3576323	505.874896183	348.469780526
39	3587173	507.327617403	432.268407553
39	3596670	508.613001574	1137.066181062
39	3597717	508.746490046	236.849320865
39	3603535	509.636373841	425.606340351
39	3612322	511.013636724	837.541129284
39	3619719	511.941515748	311.351286372
39	3628231	513.076543838	130.967001408
39	3639647	514.660922933	66.899965918
39	3640445	514.740345735	808.546153245
39	3647467	515.623570902	2518.287780701
39	3655977	516.546121343	614.239896747
39	3656889	516.651226108	502.767116267
39	3658155	516.795591258	487.71537168
39	3659260	516.939624997	358.806600801
39	3660047	517.046488786	453.810992097
39	3668806	518.023384448	701.227147097
39	3669740	518.144070743	422.23384035
39	3675020	518.91792186	274.022854133
39	3675625	518.987963479	1215.263641977
39	3675740	519.004473085	293.684220325
39	3676319	519.092623238	623.174437813
39	3678330	519.453925154	1182.07245991
39	3682213	520.100687121	1295.876664477
39	3689192	520.932598027	357.116239049
39	3700616	522.402915911	85.645536647
39	3704829	522.916933772	510.531391913
39	3705488	523.002936424	748.296301214
39	3707481	523.300989939	378.445079433
39	3710933	523.729035067	4091.30361283
39	3713291	523.942590412	1507.413736557
39	3727576	525.728590019	368.474399027
39	3727867	525.762860043	1336.887488085
39	3729441	525.950599595	91.079259909
39	3729929	526.01653445	394.333468561
39	3732194	526.317221873	80.083496668
39	3733184	526.47543374	621.662123969
39	3750851	528.470764786	256.830361109
39	3751536	528.617067885	1286.309892288
39	3763274	530.116618766	465.812427617
39	3765286	530.318540924	1238.522474259
39	3766283	530.436007923	700.555232325
39	3767130	530.536467094	363.636274736
39	3770000	530.894335334	101.082662298
39	3781711	532.417754112	1940.470684032
39	3783046	532.644208573	584.366234788
39	3813735	536.734543485	345.21017517
39	3814466	536.797061253	831.656122954
39	3815219	536.868040533	51.898893561
39	3815848	536.930889845	1764.074380327
39	3816582	537.010227624	68.11753113
39	3819918	537.455263192	471.967589783
39	3822560	537.716127095	129.033840626
39	3831357	538.808864106	34.835026426
39	3846818	540.93764993	65.273706444
39	3850176	541.393739758	219.760259019
39	3856676	542.157341872	1389.87549227
39	3870810	543.975983823	901.327085109
39	3877470	544.801216667	1560.302910139
39	3883818	545.625020538	486.253055524
39	3887846	546.159910802	513.192138337
39	3893102	546.846256962	560.368361557
39	3901431	547.723420352	955.645241888
39	3918284	549.617685849	353.105251674
39	3932687	551.527339629	648.413410103
39	3935227	551.84255871	1155.807416876
39	3939670	552.395872763	159.671858188
39	3941098	552.628124815	889.945651042
39	3941309	552.652874697	18.058168776
39	3942813	552.848665571	1286.711255675
39	3943041	552.871417876	157.118893076
39	3946131	553.211599984	2908.901255781
39	3948828	553.600389462	326.127775077
39	3953311	554.120724678	430.973430783
39	3953400	554.131635808	4090.538310691
39	3971423	556.348323756	62.386615029
39	3976397	556.962468773	138.741601583
39	3984295	557.82805346	1358.966129286
39	3987095	558.11347694	458.165916369
39	3992460	558.924770019	621.816974543
39	3993586	559.112062759	434.009228409
39	3999826	559.976246291	929.006843982
39	4000572	560.092424538	834.353904744
39	4001483	560.238471388	47.960450715
39	4011811	562.00464817	381.995258265
39	4012675	562.113696908	17.432732436
39	4020755	562.939855064	354.244207146
39	4023856	563.275124451	1073.570714912
39	4036714	564.809396839	290.925046774
39	4040687	565.365558816	510.336195265
39	4058975	567.722585541	76.94452289
39	4078796	570.182566181	2131.507366948
39	4109851	574.347773563	1153.281589294
39	4111197	574.552125843	235.514829985
39	4114929	575.134197924	45.428456185
39	4120237	575.84895806	1353.048112615
39	4120701	575.889132119	241.750910554
39	4122838	576.159232647	80.059588472
39	4123821	576.256465395	159.706798696
39	4133856	577.407391189	336.357948141
39	4147666	579.093670761	1031.308510414
39	4154269	579.871699756	26.682505779
39	4163217	581.08651332	1681.649117638
39	4169906	582.16222873	815.368627844
39	4180542	583.872372651	136.983776065
39	4180969	583.948271672	250.954707802
39	4185062	584.548115474	293.859063895
39	4189579	585.174007494	840.091867162
39	4192781	585.608764694	145.743045001
39	4200238	586.509072823	221.369177214
39	4207695	587.585506052	270.2207852
39	4208187	587.647477619	114.510876484
39	4212872	588.310754516	551.633839206
39	4212894	588.312183291	569.225909035
39	4216076	588.756205438	401.283617362
39	4230288	590.696428536	503.554254761
39	4230383	590.707356147	921.487945391
39	4234188	591.308998446	979.356713539
39	4237693	591.577540173	279.770388172
39	4242245	592.393210099	811.24356743
39	4242627	592.476705971	1207.261358764
39	4243115	592.605414875	806.178944243
39	4247181	593.13928385	69.47457924
39	4252688	593.932793559	249.755690832
39	4253740	594.116429519	793.298863658
39	4254377	594.223273309	748.458690349
39	4255008	594.353398275	182.54429233
39	4259870	594.977362917	1201.389037511
39	4280374	597.837439789	1493.937474798
39	4281262	597.999366479	1669.657032335
39	4283173	598.416351481	2595.316103181
39	4287330	599.192084542	708.095305733
39	4288417	599.348259661	565.161004688
39	4295964	600.536855503	1153.585698349
39	4300984	601.320477353	1060.005214901
39	4301791	601.410889351	215.045123509
39	4314076	603.064140334	1410.786526328
39	4316435	603.269220758	682.960049378
39	4319574	603.641657293	783.639756149
39	4319745	603.662250088	118.780243401
39	4326157	604.557729816	221.09053404
39	4330038	604.980203213	389.523337563
39	4343779	606.679602637	690.977841934
39	4343982	606.720883955	473.007372912
39	4345113	606.922758954	304.40872505
39	4346716	607.208991032	31.249299753
39	4352496	607.961591159	209.491542432
39	4355996	608.408800674	45.005767069
39	4374095	610.920814722	1485.852230761
39	4379309	611.701656563	916.076863363
39	4386679	612.560009507	96.303200058
39	4387900	612.755636132	1603.652442205
39	4393531	613.492479446	2195.76854118
39	4395256	613.748020483	184.722631475
39	4401708	614.663926548	2009.872468728
39	4412876	616.030001234	56.243109288
39	4413268	616.095652609	407.808657391
39	4413452	616.130652298	48.234796153
39	4414395	616.254576005	367.043143886
39	4417084	616.676806496	1143.808143684
39	4422719	617.409478824	1235.990387189
39	4423737	617.538142202	1686.34959778
39	4427211	618.08687117	45.644362111
39	4429305	618.460990154	491.334890105
39	4434060	619.009023376	330.055600132
39	4437070	619.438509533	260.761584406
39	4438373	619.623845048	97.130009661
39	4439418	619.763254915	1004.70149565
39	4441004	619.929448607	493.028701255
39	4442203	620.077927686	2687.724964474
39	4450587	621.150296746	79.686669187
39	4451923	621.365277746	359.430338096
39	4459009	622.369069283	183.290013884
39	4465766	623.210152442	457.439207823
39	4471315	623.986275785	296.521487971
39	4473716	624.367617174	512.924679543
39	4475332	624.622118282	151.489392062
39	4487139	625.967599653	1383.914765024
39	4487972	626.079544164	330.680497609
39	4500572	627.729712975	1763.5039806
39	4501538	627.865184162	175.653919816
39	4505480	628.525812354	1162.424965819
39	4506849	628.755503889	633.666311862
39	4511080	629.401648483	1484.328921035
39	4512509	629.610447271	56.687123458
39	4514708	629.851862248	118.891328302
39	4526474	631.421994966	80.552119376
39	4531767	632.095270688	1277.465284228
39	4538864	632.985477784	378.64176437
39	4544891	633.935477743	183.184257316
39	4556381	635.595339967	1004.221102933
39	4565265	636.787718437	327.251059095
39	4567896	637.103228182	1639.762266185
39	4580254	638.699603879	200.760228788
39	4580808	638.759581802	802.599260086
39	4587877	639.838987883	29.850163224
39	4589297	640.012947174	207.776949031
39	4592413	640.430162578	388.284770604
39	4593143	640.525976135	865.02064575
39	4596187	640.830435549	772.34535698
39	4601474	641.431504172	35.717613525
39	4602110	641.525903977	889.634737753
39	4613803	642.972987003	788.780547852
39	4617079	643.379695105	178.970672387
39	4628144	644.889105076	402.123516233
39	4628920	645.00835489	605.403786351
39	4629305	645.068758411	1278.061250508
39	4639278	646.315513875	2811.96031704
39	4642019	646.746410137	592.31941778
39	4645601	647.296383724	3381.355717048
39	4647930	647.608340131	1627.684613403
39	4661105	649.480548633	51.787246699
39	4679195	651.938331687	204.379904074
39	4680831	652.109977648	142.141316183
39	4693226	653.858061502	740.022821511
39	4693614	653.911756362	1608.729744956
39	4702217	655.132385325	1419.819153531
39	4724570	658.238056516	206.976510561
39	4726369	658.502167227	97.029567429
39	4728117	658.76314678	804.705148422
39	4728162	658.766069871	292.629974215
39	4731051	659.175938843	140.736355978
39	4739250	660.323947035	867.673976435
39	4751622	661.780851995	219.520752277
39	4761624	663.043821531	72.409065187
39	4763046	663.238607258	225.353391694
39	4767341	663.726969475	366.058267208
39	4772786	664.362632414	1061.052362091
39	4774371	664.542181755	1528.367227768
39	4776534	664.804288086	1087.786434223
39	4780138	665.255393183	1030.753154965
39	4790941	666.523020432	24.701819564
39	4796676	667.346790915	122.674246146
39	4797712	667.469513603	786.953185407
39	4798732	667.592984955	1284.743055053
39	4806201	668.538863372	1608.788773306
39	4810320	669.150083265	129.215712305
39	4810647	669.194271674	542.356904692
39	4812063	669.387010767	2701.421518343
39	4814256	669.655249033	133.636657501
39	4835324	672.288744624	302.4265243
39	4837548	672.637598294	1269.825140846
39	4838185	672.731173974	982.751637644
39	4838277	672.739191562	217.61098686
39	4839851	672.918144144	339.117519986
39	4840697	673.031268048	241.213799905
39	4848392	674.066901819	390.018343474
39	4848572	674.080190395	570.291774186
39	4855003	674.842961075	232.860421169
39	4870093	676.761674488	1244.915632669
39	4872421	677.105994911	237.792433836
39	4886766	678.998106512	1416.367707425
39	4890011	679.415243778	559.367794731
39	4893787	679.986912495	181.291253899
39	4895199	680.219663151	844.660012533
39	4907953	681.655002764	1145.840417842
39	4909060	681.836588564	335.041205663
39	4912339	682.293101429	1207.579486354
39	4912928	682.371567978	660.967141915
39	4916749	682.858516438	309.676362918
39	4923190	683.588371579	765.029838844
39	4923699	683.641152742	168.435836065
39	4933776	684.822545328	201.790364288
39	4942876	686.034160562	2659.608439414
39	4944298	686.244380688	1577.657938866
39	4944987	686.33912454	1272.631110892
39	4946654	686.583535532	930.99744188
39	4951299	687.118470552	28.326118689
39	4966396	688.890134408	362.764435879
39	4972524	689.787110524	659.992588536
39	4973148	689.882128916	488.904786828
39	4976893	690.427313808	891.489176655
39	4982354	691.036628013	13.242915319
39	4984641	691.319226597	97.010533122
39	4986283	691.575291527	623.600293705
39	4990341	692.264553802	345.521403418
39	4995859	693.059627415	3044.210893711