version 2
run KademliaDHT-7-20211202-22:17:06-9356
attr Lifetime 800s
attr configname KademliaDHT
attr datetime 20211202-22:17:06
attr experiment KademliaDHT
attr inifile configs.ini
attr iterationvars $Lifetime=800s
attr iterationvars2 "$Lifetime=800s, $repetition=0"
attr measurement $Lifetime=800s
attr network oversim.underlay.simpleunderlay.SimpleUnderlayNetwork
attr processid 9356
attr repetition 0
attr replication #0
attr resultdir results
attr runnumber 7
attr seedset 7

vector 50  SimpleUnderlayNetwork.globalObserver.globalStatistics  "GlobalNodeList: Number of nodes"  ETV
vector 51  SimpleUnderlayNetwork.globalObserver.globalStatistics  "GlobalDhtTestMap: Number of stored DHT entries"  ETV
vector 52  SimpleUnderlayNetwork.globalObserver.globalStatistics  "Kademlia: Buckets Refreshed Per Task"  ETV
vector 53  SimpleUnderlayNetwork.globalObserver.globalStatistics  "LifetimeChurn: Session Time"  ETV
vector 54  SimpleUnderlayNetwork.globalObserver.globalStatistics  "LifetimeChurn: Time between creates"  ETV
vector 55  SimpleUnderlayNetwork.globalObserver.globalStatistics  "LifetimeChurn: Time between deletes"  ETV
50	1316669	150	493
50	1940554	200	484
50	2565096	250	497
50	3198500	300	506
50	3828185	350	499
50	4412003	400	488
50	5003668	450	488
50	5605608	500	494
50	6209775	550	494
50	6835010	600	500
50	7436653	650	489
50	8016402	700	488
50	8580403	750	483
50	9173625	800	492
50	9791353	850	493
50	10407801	900	503
50	11035328	950	506
50	11621729	1000	511
50	12251354	1050	503
50	12842134	1100	501
51	1316670	150	731
51	1443926	160	808
51	1571730	170	884
51	1691629	180	945
51	1820751	190	1016
51	1940555	200	1096
51	2064224	210	1190
51	2194551	220	1268
51	2323504	230	1341
51	2440472	240	1403
51	2565097	250	1471
51	2700468	260	1558
51	2825177	270	1659
51	2944825	280	1732
51	3082232	290	1807
51	3198501	300	1868
51	3327744	310	1942
51	3452419	320	2029
51	3571143	330	2109
51	3699047	340	2206
51	3828186	350	2282
51	3935087	360	2331
51	4044931	370	2333
51	4177154	380	2335
51	4295578	390	2314
51	4412004	400	2312
51	4527767	410	2298
51	4646826	420	2318
51	4768642	430	2342
51	4892232	440	2317
51	5003669	450	2308
51	5142174	460	2323
51	5261362	470	2322
51	5370558	480	2338
51	5488712	490	2348
51	5605609	500	2341
51	5731599	510	2325
51	5866715	520	2332
51	5991330	530	2339
51	6105515	540	2365
51	6209776	550	2367
51	6323659	560	2344
51	6440876	570	2323
51	6579522	580	2348
51	6721014	590	2346
51	6835011	600	2367
51	6944987	610	2366
51	7061889	620	2353
51	7179472	630	2349
51	7304199	640	2341
51	7436654	650	2357
51	7542495	660	2351
51	7653859	670	2351
51	7770389	680	2328
51	7898158	690	2335
51	8016403	700	2337
51	8134852	710	2350
51	8245685	720	2351
51	8353947	730	2321
51	8467123	740	2340
51	8580404	750	2332
51	8704309	760	2328
51	8823128	770	2338
51	8945458	780	2332
51	9058722	790	2316
51	9173626	800	2309
51	9299909	810	2314
51	9422381	820	2328
51	9554643	830	2338
51	9661841	840	2320
51	9791354	850	2312
51	9909552	860	2310
51	10048812	870	2318
51	10175322	880	2319
51	10295450	890	2317
51	10407802	900	2312
51	10536202	910	2311
51	10658018	920	2313
51	10779432	930	2317
51	10915258	940	2343
51	11035329	950	2312
51	11155848	960	2339
51	11276145	970	2333
51	11385249	980	2336
51	11510696	990	2341
51	11621730	1000	2348
51	11754505	1010	2348
51	11876825	1020	2347
51	12000669	1030	2370
51	12121659	1040	2366
51	12251355	1050	2374
51	12370029	1060	2370
51	12495559	1070	2366
51	12604613	1080	2376
51	12726649	1090	2400
51	12842135	1100	2414
51	12980514	1110	2416
51	13118024	1120	2399
51	13237367	1130	2376
51	13318447	1140	2375
52	1316947	150.027263724	0
52	1317239	150.054420952	0
52	1318963	150.233346474	4
52	1321526	150.54057664	0
52	1324589	150.946894331	0
52	1329774	151.407769766	0
52	1330610	151.477259057	0
52	1332090	151.592341491	0
52	1339333	152.095806561	0
52	1362989	154.201758681	3
52	1391800	156.403315595	1
52	1404202	157.127538013	3
52	1404249	157.128572113	2
52	1405446	157.245125103	0
52	1430204	158.939929333	1
52	1445545	160.148229018	1
52	1462004	161.31359991	0
52	1479933	162.754160104	3
52	1492340	163.610135201	3
52	1495048	163.855013151	2
52	1495590	163.900352884	0
52	1496482	163.979004517	3
52	1512233	165.186332241	3
52	1516705	165.595710264	0
52	1529498	166.684309187	0
52	1555328	168.666274656	0
52	1566203	169.669861886	0
52	1582611	170.714414167	0
52	1587251	171.288123404	1
52	1643882	176.015311313	4
52	1675409	178.568130739	0
52	1686486	179.280805135	0
52	1690843	179.870595451	0
52	1697522	180.764993417	4
52	1730586	183.215210443	0
52	1730697	183.228281254	2
52	1746244	184.459129732	4
52	1746363	184.464783658	2
52	1760218	185.410174894	0
52	1768179	186.343527106	0
52	1784649	187.671575601	1
52	1789212	187.963782635	0
52	1835330	191.022765929	0
52	1835756	191.070016899	1
52	1843361	191.73421208	1
52	1862194	193.584287595	6
52	1863197	193.65748136	0
52	1868142	193.952793919	0
52	1893285	195.856171516	0
52	1897150	196.185462863	6
52	1904326	196.824691503	0
52	1915234	197.799205819	0
52	1924369	198.652611419	0
52	1925464	198.758530976	0
52	1940982	200.036407811	1
52	1941360	200.07849257	0
52	1949162	200.746971049	0
52	1951918	200.894556345	0
52	1952756	200.937504107	0
52	1958082	201.355064316	0
52	1962324	201.79593594	0
52	1963621	201.941322738	0
52	1963773	201.955497333	0
52	1963932	201.97119281	0
52	1964181	201.993544175	0
52	1964659	202.042335355	0
52	1965051	202.079716851	0
52	1965571	202.127530213	0
52	1966626	202.211145638	0
52	1970065	202.417485494	0
52	1970728	202.455812853	0
52	1971453	202.502172294	0
52	1973061	202.627560156	5
52	1975404	202.828091627	0
52	1975469	202.834278145	2
52	1975591	202.842252379	0
52	1976045	202.879322323	0
52	1978459	203.075942826	0
52	1979393	203.168797423	2
52	1983042	203.501651225	0
52	1983285	203.523463311	5
52	1985749	203.735966462	0
52	1986224	203.776826368	0
52	1986305	203.783822385	0
52	1986599	203.811915719	0
52	1987676	203.927344188	0
52	1988096	203.975257903	0
52	1988239	203.991994438	0
52	1990458	204.232686582	0
52	1992053	204.402384778	0
52	1993788	204.553922844	0
52	1998242	204.834650294	0
52	1998263	204.836215344	0
52	2000026	204.945453854	0
52	2000244	204.963147485	4
52	2000924	205.001443108	3
52	2001155	205.013777702	0
52	2001552	205.045920887	0
52	2002462	205.107624806	0
52	2004450	205.24294704	0
52	2005336	205.303576477	0
52	2005399	205.309080509	0
52	2005404	205.309477669	0
52	2007768	205.50728148	0
52	2010214	205.689516531	0
52	2010906	205.735351672	0
52	2011745	205.788773042	0
52	2014070	205.974973017	0
52	2019421	206.498072821	0
52	2020219	206.579153815	0
52	2020547	206.61364866	0
52	2025482	206.992586932	0
52	2027503	207.161895716	0
52	2027626	207.170512845	0
52	2027771	207.183137714	0
52	2028230	207.218286926	0
52	2028969	207.269713676	0
52	2029185	207.284619625	0
52	2029912	207.342455022	0
52	2032714	207.518673765	0
52	2033340	207.560001779	0
52	2035436	207.715056659	0
52	2035604	207.727961685	0
52	2037129	207.834278228	7
52	2039686	207.990978046	0
52	2041963	208.132726184	0
52	2042191	208.150296836	0
52	2043647	208.239886861	0
52	2045156	208.346896179	0
52	2046388	208.433707045	0
52	2048837	208.685668952	0
52	2050089	208.849476796	0
52	2050327	208.875543627	0
52	2052463	209.094137378	0
52	2054599	209.312628079	0
52	2055061	209.352041393	0
52	2055281	209.374559345	0
52	2055607	209.411818304	0
52	2057711	209.565730163	1
52	2058262	209.596329836	0
52	2063026	209.917765119	0
52	2063871	209.98053423	0
52	2065964	210.128689303	0
52	2066829	210.206902294	0
52	2067769	210.290919764	0
52	2067953	210.306408832	0
52	2068139	210.318896923	0
52	2068834	210.382944652	0
52	2070794	210.571035136	0
52	2071902	210.688973621	0
52	2077338	211.190096512	0
52	2078298	211.28429632	0
52	2080640	211.500515907	0
52	2080875	211.520656632	0
52	2081409	211.564534513	0
52	2083101	211.692412318	0
52	2083492	211.717852244	0
52	2083560	211.72290728	0
52	2086922	211.939941567	0
52	2088488	212.049181713	0
52	2090304	212.167763655	0
52	2092753	212.333894265	2
52	2093973	212.419730363	0
52	2095599	212.517177839	2
52	2096503	212.572959597	5
52	2096685	212.580533707	0
52	2097398	212.623518478	0
52	2097481	212.628033792	0
52	2097736	212.643682927	0
52	2101562	212.844287719	0
52	2101995	212.869338176	0
52	2105568	213.115903097	0
52	2106151	213.157757769	0
52	2107269	213.246262032	0
52	2109856	213.460724567	0
52	2110252	213.501561736	0
52	2111318	213.604855355	0
52	2111565	213.624000766	0
52	2111675	213.63535439	0
52	2112433	213.700984355	4
52	2112785	213.732347511	0
52	2113369	213.776051204	0
52	2118335	214.107987062	0
52	2120081	214.230805832	0
52	2120565	214.273003262	3
52	2120595	214.273397057	0
52	2122335	214.449165785	3
52	2122571	214.470591882	0
52	2123632	214.571570822	0
52	2124756	214.708897689	0
52	2124777	214.712137199	0
52	2125057	214.73926092	0
52	2127321	214.932341422	0
52	2134851	215.405851417	0
52	2135035	215.416527784	0
52	2135336	215.437991617	0
52	2135758	215.470163953	0
52	2136131	215.499369473	0
52	2136779	215.547376384	0
52	2139517	215.772575199	0
52	2140783	215.864534576	0
52	2142123	215.964872486	0
52	2143546	216.100337712	2
52	2144452	216.198498669	0
52	2148848	216.59639804	0
52	2149233	216.626893813	0
52	2151947	216.85361588	0
52	2153081	216.977009461	0
52	2154472	217.091952358	2
52	2155648	217.180760243	0
52	2156779	217.261066373	0
52	2157135	217.290406635	0
52	2158362	217.369847985	1
52	2160852	217.52579479	0
52	2163345	217.692715315	0
52	2164722	217.791894084	0
52	2169365	218.109194612	0
52	2169635	218.129060864	0
52	2169965	218.145598837	0
52	2170471	218.186815191	0
52	2171366	218.25779789	1
52	2171665	218.284355917	0
52	2174171	218.553959084	0
52	2174296	218.570254184	0
52	2176808	218.818178793	0
52	2176937	218.831708543	0
52	2178818	218.993699198	3
52	2179924	219.075029483	0
52	2182269	219.233816364	0
52	2186953	219.501164034	4
52	2187252	219.514732035	0
52	2188329	219.573662311	0
52	2189013	219.611795139	0
52	2191812	219.7750655	1
52	2191848	219.778315876	0
52	2193241	219.890713209	2
52	2194089	219.96360054	0
52	2194519	219.998642043	0
52	2196629	220.198464182	0
52	2197358	220.296696614	1
52	2198577	220.451727312	0
52	2198639	220.461582144	0
52	2198947	220.497509183	0
52	2200141	220.633294511	0
52	2200380	220.651760173	0
52	2204210	220.94861616	0
52	2204587	220.977741308	0
52	2205093	221.014690979	0
52	2206203	221.098983021	0
52	2207544	221.238411858	3
52	2208358	221.30486812	2
52	2209697	221.409401026	0
52	2210045	221.437127679	0
52	2214470	221.769428472	1
52	2214572	221.776247466	2
52	2217228	221.968423023	0
52	2217840	222.011546269	0
52	2220999	222.245798832	0
52	2221730	222.297937509	0
52	2222171	222.328138699	0
52	2222231	222.332180126	1
52	2225024	222.526077735	0
52	2225326	222.546040069	0
52	2225520	222.56533408	0
52	2225637	222.573375192	0
52	2226811	222.671519798	2
52	2227223	222.70593599	0
52	2227360	222.718904903	0
52	2230006	222.954469445	5
52	2232475	223.144593017	0
52	2232763	223.161656159	4
52	2233361	223.200579127	0
52	2234510	223.266496839	0
52	2236158	223.363732576	0
52	2237216	223.425805736	0
52	2238282	223.496954803	0
52	2239059	223.560890966	0
52	2241750	223.830288808	0
52	2242976	223.963671535	0
52	2243548	224.020116326	0
52	2243775	224.044829698	0
52	2249191	224.455298866	0
52	2250193	224.517097906	0
52	2252609	224.673158747	0
52	2253966	224.759148032	0
52	2256361	224.945317839	0
52	2258968	225.151941733	7
52	2261336	225.335099283	0
52	2261688	225.363996298	0
52	2261974	225.389534348	0
52	2263836	225.538692211	0
52	2267773	225.802000686	0
52	2268081	225.821976526	0
52	2268645	225.86974671	0
52	2269031	225.90356819	0
52	2269172	225.918924137	0
52	2272180	226.141421392	0
52	2272806	226.186258827	0
52	2273103	226.206794326	0
52	2273181	226.214202241	0
52	2273584	226.243127675	0
52	2273885	226.261896745	0
52	2277990	226.527898393	0
52	2279959	226.671984812	0
52	2279973	226.673266281	0
52	2280051	226.677462152	0
52	2283510	227.044960413	0
52	2283612	227.055166949	0
52	2283806	227.075991734	0
52	2286188	227.304637783	0
52	2286263	227.310546873	2
52	2286971	227.356130639	0
52	2286982	227.357665632	0
52	2287383	227.393696543	0
52	2289278	227.535336299	0
52	2291567	227.768796326	5
52	2291793	227.782985744	0
52	2293156	227.886893098	0
52	2293677	227.923607209	0
52	2294875	228.000883681	0
52	2299435	228.337502866	0
52	2301933	228.534391458	0
52	2305948	228.883046044	0
52	2306709	228.941107467	0
52	2307719	229.010195295	0
52	2309100	229.090194176	1
52	2310233	229.15442747	4
52	2310381	229.160483063	0
52	2311881	229.252355542	5
52	2315533	229.481936994	0
52	2319620	229.718896953	0
52	2319998	229.739045843	0
52	2321477	229.850111015	0
52	2323514	230.00198145	0
52	2324213	230.050880665	0
52	2325389	230.13259817	0
52	2327240	230.271418967	0
52	2328546	230.371868927	0
52	2329344	230.454531024	0
52	2329657	230.484497595	0
52	2329691	230.490158029	0
52	2331774	230.717985355	0
52	2334803	230.97460755	0
52	2334839	230.979290651	0
52	2335106	230.997767534	0
52	2335506	231.02724845	0
52	2335630	231.034359755	0
52	2336358	231.088892531	0
52	2338534	231.266171964	0
52	2339568	231.382662189	0
52	2340825	231.536823563	9
52	2341242	231.571441734	0
52	2342727	231.707939978	0
52	2347489	232.158336346	5
52	2351318	232.493450525	0
52	2351341	232.495144701	2
52	2353936	232.689363823	0
52	2354049	232.696879361	0
52	2354485	232.721877364	0
52	2356409	232.836380605	0
52	2356556	232.844740498	0
52	2357102	232.876779969	0
52	2357528	232.905318832	0
52	2360451	233.097869055	0
52	2365097	233.352409391	0
52	2366228	233.415159469	0
52	2369543	233.614577681	0
52	2369975	233.643555741	0
52	2371436	233.735294236	0
52	2374047	233.882610355	0
52	2375628	233.973288898	2
52	2376775	234.04271916	0
52	2376916	234.052472066	0
52	2379862	234.248082542	0
52	2382514	234.403154577	0
52	2382912	234.431693754	0
52	2383435	234.469566887	0
52	2384290	234.533121562	0
52	2388151	234.842193157	0
52	2390035	235.012929368	0
52	2390100	235.020355828	2
52	2392081	235.17978574	0
52	2392324	235.203378526	2
52	2393194	235.276614117	1
52	2394998	235.430331762	0
52	2395342	235.458830903	2
52	2395647	235.479520735	0
52	2396331	235.538632279	0
52	2396434	235.548888746	1
52	2396620	235.567954146	0
52	2396902	235.59433572	0
52	2398303	235.722265092	0
52	2398368	235.727946695	0
52	2401723	236.022261462	6
52	2403476	236.191484479	0
52	2405892	236.466485824	0
52	2406019	236.483250456	0
52	2407646	236.749185293	0
52	2410093	237.041910465	0
52	2410257	237.05912967	0
52	2413955	237.416665604	0
52	2414459	237.460159128	0
52	2414715	237.484236666	0
52	2415550	237.549556005	0
52	2416316	237.614130909	0
52	2418480	237.849685947	0
52	2418659	237.879879528	0
52	2418923	237.90831149	1
52	2419048	237.924568994	0
52	2419051	237.926437107	0
52	2419586	237.998606121	0
52	2422065	238.323325373	1
52	2423590	238.456149584	0
52	2424520	238.541028043	0
52	2425424	238.617128868	0
52	2426485	238.712685552	0
52	2430593	239.144482797	0
52	2432014	239.258540939	0
52	2432035	239.259593522	0
52	2434880	239.496050895	0
52	2435001	239.506153652	0
52	2436017	239.612768332	0
52	2437292	239.743707876	0
52	2440105	239.975043566	0
52	2440408	239.994727694	0
52	2441468	240.070595884	0
52	2442243	240.119921491	0
52	2443218	240.188464376	0
52	2445843	240.390455527	0
52	2448950	240.631660024	0
52	2449959	240.704813865	0
52	2450507	240.744226227	0
52	2450516	240.744784628	0
52	2454458	241.041706375	0
52	2455876	241.204626274	7
52	2457822	241.486462012	0
52	2458535	241.607282763	0
52	2459128	241.707075765	0
52	2459899	241.812969715	2
52	2461176	241.916109361	0
52	2461436	241.935786898	0
52	2462724	242.016887294	3
52	2463079	242.034472949	0
52	2465083	242.146646396	0
52	2465543	242.176170014	0
52	2468992	242.454521449	0
52	2469000	242.45551873	0
52	2469079	242.464167775	0
52	2469611	242.533929448	0
52	2472319	242.813785095	0
52	2473263	242.920338005	0
52	2473439	242.941501085	0
52	2473754	242.984731242	0
52	2474115	243.043978778	0
52	2476218	243.379611006	0
52	2476522	243.42046775	0
52	2476628	243.433395017	0
52	2477178	243.488835118	0
52	2478691	243.666111199	0
52	2480383	243.818201405	0
52	2481416	243.896002446	1
52	2485669	244.182223211	0
52	2486491	244.234767777	0
52	2489331	244.412333173	0
52	2491039	244.537342815	0
52	2492414	244.639414788	0
52	2495914	244.920945987	0
52	2496546	244.975305821	1
52	2496766	244.995784498	0
52	2497185	245.027717619	0
52	2497912	245.081743774	0
52	2499117	245.161970013	0
52	2503735	245.432087864	0
52	2504669	245.493260625	0
52	2506113	245.584624048	0
52	2507499	245.66885024	0
52	2508027	245.701858874	0
52	2508857	245.756550098	0
52	2510558	245.855841489	0
52	2514313	246.069346093	0
52	2515653	246.151071054	0
52	2518507	246.456091652	0
52	2519819	246.611526241	0
52	2521476	246.72762141	0
52	2525476	246.968818957	0
52	2527822	247.125796414	0
52	2528568	247.170685561	0
52	2530671	247.314976536	2
52	2533284	247.48734545	0
52	2537352	247.759370132	0
52	2537547	247.775370965	0
52	2538691	247.855034005	0
52	2540551	247.970672531	0
52	2541941	248.076435119	0
52	2542093	248.085745407	0
52	2542375	248.103596407	0
52	2546913	248.48515557	0
52	2549636	248.696307215	0
52	2550241	248.751994784	2
52	2553172	249.019211782	0
52	2554541	249.123136859	3
52	2558268	249.387004434	0
52	2561264	249.628590155	0
52	2561657	249.669258614	0
52	2561732	249.676208606	0
52	2563072	249.790689854	2
52	2563601	249.844210421	0
52	2563723	249.860077342	0
52	2563797	249.872643445	0
52	2565361	250.027263724	0
52	2565650	250.054420952	0
52	2569215	250.276568761	3
52	2574215	250.54057664	0
52	2579608	250.946894331	0
52	2583117	251.248982696	1
52	2585139	251.398491228	1
52	2585298	251.407769766	0
52	2588489	251.592341491	0
52	2598928	252.095806561	0
52	2613702	252.9925494	3
52	2624029	253.849178423	1
52	2628202	254.201758681	0
52	2642873	255.298173587	3
52	2658295	256.359038618	4
52	2670162	257.128572113	0
52	2671593	257.245125103	0
52	2686527	258.939929333	0
52	2687349	259.008082628	0
52	2687360	259.008519948	0
52	2702535	260.148229018	0
52	2716137	261.31359991	1
52	2725280	262.105686621	3
52	2734090	262.754160104	0
52	2748075	263.610135201	0
52	2750832	263.855013151	0
52	2751414	263.900352884	0
52	2752395	263.979004517	0
52	2766313	265.186332241	0
52	2771112	265.595710264	2
52	2784518	266.684309187	0
52	2784941	266.721589249	0
52	2789304	267.117379874	0
52	2799040	267.940842363	0
52	2808190	268.666274656	0
52	2812195	268.988407512	2
52	2815839	269.285045376	5
52	2828467	270.253917006	0
52	2829514	270.349559755	3
52	2834047	270.714414167	0
52	2840918	271.288123404	3
52	2850909	271.97282986	2
52	2864972	273.294204693	3
52	2881787	274.939628559	0
52	2881957	274.955158482	4
52	2893343	276.015311313	0
52	2924564	278.568130739	3
52	2933884	279.280805135	0
52	2936796	279.498350176	1
52	2939295	279.650713837	2
52	2942776	279.870595451	0
52	2943802	279.943154505	6
52	2958372	280.764993417	0
52	2980803	282.12524969	1
52	2986901	282.794879934	2
52	2992395	283.215210443	0
52	3010987	284.459129732	0
52	3011049	284.464783658	0
52	3022265	285.410174894	2
52	3023519	285.531675251	2
52	3032531	286.078124492	1
52	3036717	286.343527106	0
52	3054198	287.671575601	0
52	3058573	287.963782635	0
52	3067421	288.65873408	2
52	3069105	288.84394388	1
52	3096384	291.022765929	0
52	3097101	291.070016899	0
52	3106865	291.73421208	0
52	3107947	291.828818364	0
52	3124072	293.584287595	0
52	3124225	293.607119571	6
52	3124620	293.65748136	0
52	3127018	293.952793919	0
52	3127351	293.989938611	2
52	3141803	295.282931888	0
52	3147781	295.791708727	2
52	3148434	295.856171516	0
52	3153538	296.185462863	0
52	3162808	296.824691503	0
52	3174314	297.799205819	0
52	3177270	298.127504342	1
52	3185156	298.652611419	0
52	3186792	298.758530976	0
52	3195150	299.680785685	4
52	3196641	299.855754894	5
52	3198627	300.012928036	2
52	3199010	300.036407811	0
52	3207395	300.746971049	0
52	3208953	300.894556345	0
52	3209427	300.937504107	0
52	3213522	301.355064316	0
52	3218302	301.79593594	0
52	3220204	301.955497333	0
52	3220391	301.97119281	0
52	3220643	301.993544175	0
52	3221277	302.042335355	0
52	3221702	302.079716851	0
52	3222319	302.127530213	0
52	3223397	302.211145638	0
52	3226171	302.417485494	0
52	3226795	302.455812853	0
52	3227390	302.502172294	0
52	3229204	302.627560156	0
52	3232321	302.828091627	0
52	3232400	302.834278145	0
52	3232550	302.842252379	0
52	3232663	302.848183598	3
52	3233230	302.879322323	0
52	3236564	303.075942826	0
52	3237852	303.168797423	0
52	3237927	303.173485747	0
52	3241964	303.501651225	0
52	3244145	303.735966462	0
52	3244512	303.776826368	0
52	3244559	303.783822385	0
52	3244744	303.811915719	0
52	3246234	303.975257903	0
52	3246432	303.991994438	0
52	3251312	304.402384778	0
52	3253220	304.553922844	0
52	3256771	304.834650294	0
52	3256794	304.836215344	0
52	3258050	304.945453854	0
52	3258270	304.963147485	0
52	3258794	305.001443108	0
52	3258967	305.013777702	0
52	3259388	305.045920887	0
52	3260329	305.107624806	0
52	3261986	305.24294704	0
52	3262740	305.303576477	0
52	3262795	305.309080509	0
52	3262798	305.309477669	0
52	3265188	305.50728148	0
52	3269467	305.788773042	0
52	3273719	306.101762082	1
52	3274701	306.195868404	1
52	3275556	306.275255522	0
52	3275987	306.308553314	2
52	3279013	306.498072821	0
52	3280332	306.579153815	3
52	3281023	306.61364866	0
52	3285991	306.890004748	1
52	3287453	306.992586932	0
52	3289931	307.161895716	0
52	3290053	307.170512845	0
52	3290237	307.183137714	0
52	3290747	307.218286926	0
52	3291515	307.269713676	0
52	3291696	307.284619625	0
52	3292363	307.342455022	0
52	3294253	307.518673765	0
52	3294623	307.560001779	0
52	3296003	307.715056659	0
52	3296168	307.727961685	0
52	3296876	307.834278228	0
52	3297834	307.990978046	0
52	3298932	308.132726184	0
52	3299058	308.150296836	0
52	3299955	308.239886861	0
52	3301177	308.346896179	0
52	3302212	308.433707045	0
52	3306427	308.685668952	0
52	3313453	309.094137378	0
52	3318019	309.374559345	0
52	3318689	309.411818304	0
52	3321597	309.565730163	3
52	3322161	309.596329836	0
52	3327507	309.98053423	0
52	3329371	310.128689303	0
52	3330446	310.206902294	0
52	3331458	310.290919764	0
52	3331679	310.306408832	0
52	3331827	310.318896923	0
52	3332492	310.382944652	0
52	3334267	310.571035136	0
52	3335447	310.688973621	0
52	3341960	311.190096512	0
52	3343318	311.28429632	0
52	3346016	311.500515907	0
52	3346307	311.520656632	0
52	3346882	311.564534513	0
52	3348481	311.692412318	0
52	3348800	311.717852244	0
52	3348854	311.72290728	0
52	3351389	311.939941567	0
52	3352841	312.049181713	0
52	3353415	312.089072584	5
52	3354746	312.167763655	0
52	3357163	312.333894265	0
52	3358582	312.419730363	0
52	3360212	312.517177839	0
52	3361150	312.572959597	0
52	3361262	312.580533707	0
52	3361948	312.623518478	3
52	3362031	312.628033792	0
52	3362288	312.643682927	0
52	3365935	312.844287719	3
52	3366353	312.869338176	0
52	3370894	313.157757769	0
52	3372262	313.246262032	0
52	3374719	313.460724567	0
52	3375104	313.501561736	0
52	3375217	313.512116632	3
52	3376235	313.604855355	0
52	3376507	313.63535439	0
52	3377156	313.700984355	0
52	3377474	313.732347511	0
52	3377896	313.776051204	0
52	3381328	314.107987062	0
52	3382878	314.230805832	0
52	3383416	314.273003262	0
52	3383417	314.273397057	0
52	3385231	314.449165785	0
52	3385498	314.470591882	0
52	3385683	314.487925739	3
52	3386850	314.571570822	1
52	3389035	314.708897689	0
52	3389090	314.712137199	0
52	3389457	314.73926092	0
52	3392752	314.932341422	0
52	3399194	315.405851417	0
52	3399294	315.416527784	0
52	3399511	315.437991617	0
52	3399931	315.470163953	0
52	3400218	315.499369473	0
52	3400759	315.547376384	0
52	3403448	315.772575199	0
52	3404416	315.864534576	0
52	3405312	315.964872486	0
52	3406663	316.100337712	0
52	3407647	316.198498669	0
52	3412318	316.59639804	0
52	3412719	316.626893813	0
52	3414921	316.85361588	0
52	3415923	316.977009461	0
52	3416998	317.091952358	0
52	3418027	317.180760243	0
52	3418891	317.261066373	0
52	3419269	317.290406635	0
52	3420292	317.369847985	0
52	3422202	317.52579479	0
52	3424037	317.692715315	0
52	3429185	318.109194612	0
52	3429400	318.129060864	0
52	3429537	318.145598837	0
52	3429971	318.186815191	0
52	3430670	318.25779789	0
52	3430897	318.284355917	0
52	3433471	318.553959084	0
52	3433613	318.570254184	0
52	3436694	318.818178793	1
52	3436881	318.831708543	0
52	3439109	318.993699198	0
52	3442216	319.233816364	0
52	3442623	319.26222232	2
52	3445929	319.501164034	0
52	3446127	319.514732035	0
52	3446831	319.573662311	0
52	3447317	319.611795139	0
52	3449574	319.7750655	0
52	3449631	319.778315876	0
52	3451094	319.890713209	4
52	3451992	319.96360054	0
52	3452402	319.998642043	0
52	3454601	320.198464182	0
52	3455757	320.296696614	0
52	3457581	320.451727312	0
52	3457672	320.461582144	0
52	3458149	320.497509183	0
52	3460147	320.633294511	0
52	3460448	320.651760173	0
52	3465086	320.94861616	0
52	3465604	320.977741308	0
52	3466115	321.014690979	0
52	3467255	321.098983021	0
52	3468876	321.238411858	0
52	3469579	321.30486812	0
52	3470767	321.409401026	3
52	3471148	321.437127679	0
52	3474856	321.769428472	0
52	3474939	321.776247466	0
52	3477597	321.968423023	0
52	3478190	322.011546269	0
52	3481937	322.245798832	0
52	3482693	322.297937509	0
52	3483139	322.328138699	0
52	3483183	322.332180126	0
52	3485383	322.526077735	0
52	3485596	322.546040069	0
52	3485774	322.56533408	0
52	3485836	322.573375192	0
52	3486917	322.671519798	0
52	3487295	322.70593599	0
52	3487525	322.718904903	0
52	3489946	322.927377509	1
52	3492243	323.144593017	0
52	3492417	323.161656159	0
52	3492835	323.200579127	0
52	3493415	323.266496839	0
52	3494380	323.363732576	0
52	3495053	323.425805736	0
52	3495611	323.477176514	2
52	3495797	323.496954803	4
52	3496746	323.560890966	0
52	3500678	323.825009563	5
52	3500839	323.830288808	0
52	3504626	324.020116326	0
52	3505108	324.044829698	0
52	3512701	324.517097906	0
52	3514592	324.673158747	0
52	3515635	324.759148032	0
52	3518122	324.945317839	0
52	3521096	325.151941733	0
52	3521563	325.199847854	0
52	3522895	325.335099283	0
52	3523372	325.389534348	0
52	3524917	325.538692211	0
52	3528282	325.802000686	5
52	3528561	325.821976526	0
52	3529199	325.86974671	0
52	3529598	325.90356819	0
52	3529740	325.918924137	0
52	3532457	326.141421392	0
52	3532938	326.186258827	0
52	3533126	326.206794326	0
52	3533211	326.214202241	0
52	3533687	326.261896745	0
52	3536573	326.527898393	0
52	3537373	326.593539689	0
52	3538314	326.671984812	3
52	3538340	326.673266281	0
52	3538379	326.677462152	0
52	3541616	327.044960413	0
52	3541701	327.055166949	0
52	3541878	327.075991734	0
52	3543640	327.304637783	0
52	3543692	327.310546873	0
52	3544094	327.356130639	0
52	3544373	327.393696543	0
52	3545676	327.535336299	0
52	3548046	327.768796326	0
52	3548219	327.782985744	0
52	3549104	327.886893098	0
52	3549384	327.923607209	0
52	3552473	328.337502866	0
52	3554010	328.534391458	0
52	3559104	328.941107467	0
52	3559958	329.010195295	0
52	3560891	329.090194176	0
52	3561763	329.15442747	0
52	3561845	329.160483063	0
52	3563178	329.252355542	0
52	3566124	329.481936994	0
52	3568676	329.739045843	0
52	3569763	329.850111015	0
52	3571160	330.00198145	0
52	3571501	330.050880665	0
52	3572075	330.13259817	0
52	3573448	330.271418967	0
52	3574210	330.371868927	0
52	3574980	330.454531024	0
52	3575333	330.484497595	0
52	3578484	330.717985355	0
52	3581353	330.97460755	0
52	3581391	330.979290651	0
52	3581563	330.997767534	0
52	3581874	331.02724845	4
52	3581980	331.034359755	0
52	3582537	331.088892531	0
52	3584281	331.266171964	0
52	3585537	331.382662189	0
52	3587531	331.536823563	0
52	3587733	331.548962341	3
52	3588110	331.571441734	0
52	3589752	331.707939978	0
52	3591182	331.815503411	0
52	3596055	332.158336346	0
52	3599614	332.493450525	0
52	3599625	332.495144701	0
52	3602296	332.689363823	0
52	3602390	332.696879361	0
52	3602745	332.721877364	0
52	3604496	332.836380605	0
52	3604601	332.844740498	0
52	3604995	332.876779969	0
52	3605337	332.905318832	0
52	3607591	333.081561042	1
52	3607791	333.097869055	0
52	3609110	333.182496336	2
52	3612359	333.352409391	0
52	3617215	333.614577681	0
52	3617717	333.643555741	0
52	3619207	333.735294236	0
52	3621356	333.882610355	0
52	3622341	333.973288898	0
52	3623192	334.04271916	0
52	3623333	334.052472066	0
52	3625741	334.248082542	0
52	3627454	334.403154577	0
52	3627726	334.431693754	0
52	3628119	334.469566887	0
52	3633011	334.842193157	0
52	3635719	335.020355828	0
52	3638219	335.17978574	0
52	3642446	335.479520735	0
52	3643203	335.538632279	0
52	3643302	335.548888746	0
52	3643508	335.567954146	0
52	3643787	335.59433572	0
52	3645189	335.722265092	0
52	3645271	335.727946695	0
52	3648507	336.022261462	0
52	3650890	336.191484479	0
52	3654651	336.466485824	0
52	3654885	336.483250456	0
52	3657627	336.720599629	8
52	3657986	336.749185293	0
52	3660949	337.041910465	0
52	3665166	337.416665604	0
52	3665698	337.460159128	0
52	3665958	337.484236666	0
52	3666682	337.549556005	0
52	3667379	337.614130909	0
52	3670547	337.849685947	0
52	3671002	337.879879528	0
52	3671423	337.90831149	0
52	3671675	337.924568994	0
52	3671703	337.926437107	0
52	3672603	337.998606121	0
52	3675883	338.209890162	0
52	3677760	338.323325373	0
52	3680166	338.456149584	0
52	3681436	338.541028043	1
52	3682678	338.617128868	0
52	3683847	338.712685552	0
52	3688593	339.138701451	0
52	3688654	339.144482797	0
52	3690046	339.258540939	0
52	3692948	339.496050895	0
52	3694233	339.612768332	0
52	3695975	339.743707876	0
52	3698778	339.975043566	0
52	3698995	339.994727694	0
52	3699226	340.01908085	2
52	3699784	340.070595884	0
52	3700222	340.119921491	1
52	3700925	340.188464376	0
52	3703217	340.390455527	0
52	3706403	340.631660024	0
52	3707397	340.704813865	0
52	3707975	340.744226227	0
52	3707987	340.744784628	0
52	3712891	341.041706375	0
52	3715371	341.204626274	0
52	3717116	341.326377689	0
52	3720196	341.607282763	0
52	3721170	341.707075765	0
52	3722036	341.793480663	3
52	3722423	341.812969715	0
52	3723582	341.916109361	0
52	3725002	342.016887294	0
52	3725253	342.034472949	0
52	3727327	342.176170014	1
52	3731789	342.45551873	0
52	3731966	342.464167775	0
52	3733315	342.533929448	0
52	3738417	342.813785095	0
52	3740251	342.920338005	0
52	3740606	342.941501085	0
52	3741307	342.984731242	0
52	3742098	343.043978778	0
52	3743160	343.13043772	2