version 2
run KademliaDHT-1-20211202-21:59:15-9356
attr Lifetime 200s
attr configname KademliaDHT
attr datetime 20211202-21:59:15
attr experiment KademliaDHT
attr inifile configs.ini
attr iterationvars $Lifetime=200s
attr iterationvars2 "$Lifetime=200s, $repetition=0"
attr measurement $Lifetime=200s
attr network oversim.underlay.simpleunderlay.SimpleUnderlayNetwork
attr processid 9356
attr repetition 0
attr replication #0
attr resultdir results
attr runnumber 1
attr seedset 1

vector 8  SimpleUnderlayNetwork.globalObserver.globalStatistics  "GlobalNodeList: Number of nodes"  ETV
vector 9  SimpleUnderlayNetwork.globalObserver.globalStatistics  "GlobalDhtTestMap: Number of stored DHT entries"  ETV
vector 10  SimpleUnderlayNetwork.globalObserver.globalStatistics  "Kademlia: Buckets Refreshed Per Task"  ETV
vector 11  SimpleUnderlayNetwork.globalObserver.globalStatistics  "LifetimeChurn: Time between deletes"  ETV
vector 12  SimpleUnderlayNetwork.globalObserver.globalStatistics  "LifetimeChurn: Session Time"  ETV
vector 13  SimpleUnderlayNetwork.globalObserver.globalStatistics  "LifetimeChurn: Time between creates"  ETV
8	1207673	150	509
8	1772490	200	508
8	2414163	250	531
8	3108845	300	523
8	3880017	350	515
8	4700186	400	529
8	5599773	450	558
8	6480160	500	545
8	7336111	550	573
8	8200541	600	567
8	8963119	650	525
8	9701934	700	530
8	10480480	750	528
8	11226778	800	522
8	12057779	850	528
8	12776767	900	525
8	13527930	950	531
8	14229864	1000	521
8	15077563	1050	511
8	15980279	1100	516
9	1207674	150	632
9	1312828	160	712
9	1420209	170	769
9	1538973	180	847
9	1655369	190	903
9	1772491	200	961
9	1889359	210	1030
9	2004835	220	1095
9	2133934	230	1153
9	2266914	240	1220
9	2414164	250	1286
9	2523729	260	1359
9	2638395	270	1433
9	2779144	280	1496
9	2946484	290	1566
9	3108846	300	1632
9	3255451	310	1695
9	3415055	320	1764
9	3555708	330	1828
9	3726151	340	1899
9	3880018	350	1970
9	4041300	360	2012
9	4210693	370	2032
9	4355339	380	2040
9	4540600	390	2016
9	4700187	400	2015
9	4872721	410	2015
9	5049728	420	2035
9	5235484	430	2042
9	5411666	440	2041
9	5599774	450	2046
9	5780214	460	2042
9	5941858	470	2043
9	6127061	480	2036
9	6288436	490	2061
9	6480161	500	2062
9	6656507	510	2076
9	6821393	520	2089
9	6994956	530	2097
9	7167039	540	2107
9	7336112	550	2119
9	7504622	560	2115
9	7664369	570	2118
9	7849063	580	2146
9	8034321	590	2153
9	8200542	600	2170
9	8365635	610	2175
9	8516860	620	2173
9	8656491	630	2180
9	8814445	640	2186
9	8963120	650	2188
9	9109579	660	2208
9	9251967	670	2221
9	9407276	680	2187
9	9538445	690	2201
9	9701935	700	2207
9	9868556	710	2202
9	10037046	720	2203
9	10196677	730	2206
9	10342893	740	2191
9	10480481	750	2179
9	10603399	760	2167
9	10755100	770	2185
9	10909672	780	2191
9	11079781	790	2177
9	11226779	800	2179
9	11375707	810	2160
9	11553947	820	2151
9	11719361	830	2168
9	11904574	840	2163
9	12057780	850	2168
9	12207340	860	2175
9	12349195	870	2152
9	12477060	880	2112
9	12624253	890	2119
9	12776768	900	2103
9	12931661	910	2110
9	13099341	920	2126
9	13245336	930	2108
9	13385079	940	2085
9	13527931	950	2074
9	13665800	960	2072
9	13810656	970	2081
9	13956606	980	2111
9	14094953	990	2107
9	14229865	1000	2100
9	14413760	1010	2090
9	14572128	1020	2075
9	14738286	1030	2080
9	14902593	1040	2111
9	15077564	1050	2111
9	15243286	1060	2110
9	15417007	1070	2104
9	15581224	1080	2095
9	15791477	1090	2091
9	15980280	1100	2115
9	16144160	1110	2119
9	16325970	1120	2103
9	16484316	1130	2093
9	16612149	1140	2093
10	1208881	150.119716753	0
10	1210419	150.279077328	0
10	1212978	150.536920662	0
10	1213931	150.628566255	0
10	1215398	150.792364879	0
10	1215418	150.796332121	3
10	1217045	151.021043342	0
10	1217382	151.063819281	0
10	1219533	151.375332461	2
10	1226720	152.130612145	2
10	1227493	152.201209024	0
10	1227607	152.210240636	5
10	1228491	152.27314159	3
10	1228720	152.296409814	2
10	1231337	152.498581475	0
10	1231737	152.534350579	0
10	1232020	152.558468632	2
10	1234456	152.782895946	1
10	1234978	152.830147942	1
10	1237594	153.099225959	0
10	1239187	153.259958617	0
10	1241978	153.564747597	7
10	1247482	153.951916834	0
10	1249350	154.105383303	0
10	1250140	154.188913828	0
10	1250900	154.265657306	0
10	1251059	154.294945953	2
10	1252840	154.539542563	4
10	1254260	154.659323117	0
10	1256479	154.827093039	5
10	1258744	155.003172184	2
10	1261844	155.207664376	0
10	1263976	155.36833396	3
10	1269601	155.837501467	1
10	1277645	156.430635681	0
10	1279341	156.524053689	3
10	1281969	156.680272331	1
10	1286469	156.975167998	0
10	1287519	157.060263576	0
10	1291329	157.421504442	2
10	1292166	157.541795595	0
10	1294172	157.814179694	0
10	1294239	157.822711504	0
10	1296968	158.097313481	0
10	1297929	158.19207642	0
10	1298515	158.247311533	0
10	1301455	158.655813432	7
10	1302547	158.809662829	0
10	1304363	159.01348514	2
10	1305235	159.10055648	0
10	1311287	159.773461957	0
10	1314667	160.281269824	1
10	1315142	160.33381145	1
10	1317819	160.747727682	2
10	1318169	160.786065085	0
10	1319887	160.974564179	0
10	1326726	161.675062189	0
10	1328970	161.92313157	2
10	1333101	162.379449432	5
10	1335673	162.579923075	0
10	1336319	162.629222684	9
10	1340334	163.008229498	2
10	1340383	163.011053383	3
10	1344073	163.281566822	0
10	1344631	163.326407309	0
10	1344745	163.33827762	0
10	1351711	163.913725548	4
10	1353723	164.067197722	2
10	1364452	164.965270418	0
10	1365293	165.037782817	2
10	1367968	165.282905268	3
10	1370212	165.46457043	0
10	1376330	166.095565924	1
10	1376470	166.109376133	3
10	1377990	166.267429293	0
10	1378589	166.339089492	0
10	1379576	166.466231483	0
10	1382720	166.784595124	8
10	1388482	167.150729081	0
10	1389937	167.263854232	0
10	1391382	167.384437001	1
10	1392680	167.481184362	0
10	1395310	167.71383912	0
10	1395707	167.752076046	0
10	1395854	167.762976421	1
10	1400672	168.307320976	1
10	1400994	168.331239091	1
10	1406769	168.715957106	0
10	1408362	168.878405571	4
10	1409229	168.973284201	1
10	1410011	169.048847002	5
10	1410887	169.129919847	1
10	1414873	169.407670191	0
10	1429503	170.820429723	0
10	1432219	171.073000308	0
10	1433955	171.208559012	2
10	1438237	171.449519988	3
10	1441273	171.645401762	0
10	1443161	171.785735522	0
10	1456337	172.882316959	3
10	1458519	173.127453022	0
10	1462851	173.582095973	1
10	1463966	173.68321932	2
10	1467029	173.921461533	1
10	1471732	174.310040493	0
10	1472150	174.346715825	4
10	1473051	174.440431171	0
10	1478748	175.142978506	2
10	1479685	175.259807712	0
10	1485074	175.825872096	3
10	1487153	175.985389719	3
10	1490615	176.230388758	5
10	1491056	176.260838113	1
10	1499528	176.915019008	2
10	1502354	177.176147482	0
10	1508936	177.650131052	0
10	1512220	177.864437945	2
10	1513711	177.95182449	1
10	1515923	178.108730158	0
10	1517306	178.231534281	5
10	1525174	178.984681287	3
10	1528357	179.315542672	2
10	1529814	179.424320974	3
10	1531153	179.505012356	0
10	1535926	179.824553731	3
10	1538010	179.946915993	3
10	1539272	180.01741775	0
10	1550481	180.904462609	2
10	1551664	181.011190527	0
10	1567197	182.10566867	1
10	1568896	182.213323563	0
10	1570447	182.33467386	0
10	1574547	182.626642933	0
10	1577501	182.863327179	0
10	1579059	182.987460663	3
10	1579928	183.057760478	6
10	1582153	183.20503726	0
10	1582471	183.23783578	1
10	1583030	183.289125347	0
10	1587555	183.718906674	1
10	1589031	183.885792511	7
10	1591224	184.162807332	4
10	1592185	184.229313902	0
10	1592267	184.234748053	0
10	1594648	184.391226303	0
10	1597545	184.584038544	0
10	1598264	184.636162508	3
10	1604599	185.091396299	1
10	1606314	185.299213549	0
10	1608385	185.62304276	5
10	1611360	185.867426869	3
10	1611824	185.895253017	0
10	1612901	185.983597987	0
10	1613599	186.031466296	0
10	1618278	186.345995552	2
10	1620633	186.580792309	0
10	1622821	186.866194295	2
10	1628057	187.308294281	2
10	1633030	187.678759078	3
10	1634855	187.82674456	0
10	1636476	187.978470724	3
10	1636888	188.035668437	5
10	1639348	188.333271706	0
10	1639384	188.335402408	0
10	1644979	188.951810322	5
10	1645626	189.025964575	0
10	1646136	189.08398878	0
10	1649554	189.454179345	0
10	1656234	190.131861133	2
10	1659405	190.524029954	3
10	1661762	190.723190798	2
10	1664068	190.877735978	0
10	1665128	190.935667052	6
10	1666796	191.037092375	3
10	1670945	191.374875381	0
10	1671253	191.399889671	0
10	1672451	191.522267086	0
10	1681442	192.593647552	0
10	1681552	192.603721763	0
10	1683394	192.761535558	1
10	1685225	192.92276939	0
10	1685405	192.944940682	2
10	1686756	193.058868704	3
10	1688728	193.233920606	0
10	1691820	193.51865527	1
10	1694403	193.746528448	6
10	1705057	194.607062362	2
10	1707071	194.745729431	0
10	1716946	195.427540642	0
10	1717548	195.479587384	2
10	1724121	195.985789805	3
10	1724343	196.013964182	0
10	1724762	196.059843006	2
10	1725772	196.170699273	2
10	1726002	196.196274803	0
10	1729063	196.440527314	0
10	1731018	196.595598899	3
10	1731350	196.624062836	0
10	1732868	196.755320009	3
10	1736589	197.073116784	0
10	1737885	197.225738288	5
10	1740025	197.395983678	0
10	1740317	197.40939637	2
10	1745040	197.708493573	0
10	1745268	197.730988256	3
10	1753027	198.329416159	2
10	1753231	198.352203433	4
10	1754838	198.526690862	2
10	1756282	198.666069521	0
10	1763616	199.163563793	3
10	1767188	199.431788025	0
10	1767286	199.440298362	1
10	1767834	199.496085721	0
10	1771435	199.917796656	0
10	1771499	199.918653771	1
10	1771598	199.927762687	0
10	1773405	200.077409107	0
10	1775421	200.262840487	0
10	1783526	201.01982733	0
10	1784800	201.175811185	1
10	1785224	201.222180859	2
10	1785638	201.258227597	0
10	1787484	201.424037604	1
10	1788305	201.48679389	3
10	1791649	201.7328549	0
10	1791943	201.75200713	0
10	1792173	201.772825555	0
10	1792886	201.832824417	0
10	1794823	201.989533814	0
10	1795831	202.062243892	3
10	1796115	202.083835044	0
10	1798587	202.280043038	5
10	1799067	202.309676217	3
10	1802868	202.579873976	0
10	1805561	202.792522031	2
10	1805926	202.816684118	0
10	1806099	202.833531825	0
10	1806269	202.847465652	0
10	1806716	202.882647248	0
10	1807238	202.926738392	1
10	1807584	202.958997457	0
10	1810615	203.211586298	2
10	1811304	203.25303031	0
10	1812709	203.356192904	0
10	1815736	203.590225623	2
10	1818346	203.765317598	2
10	1819412	203.843940598	0
10	1819700	203.871098719	0
10	1823198	204.197880974	0
10	1823377	204.207196704	0
10	1823671	204.230221867	1
10	1826823	204.536185124	0
10	1827707	204.623798083	6
10	1828786	204.731955276	0
10	1829428	204.797010425	4
10	1829815	204.827192032	0
10	1829866	204.832078013	1
10	1830282	204.860979936	1
10	1832693	205.114737964	0
10	1832823	205.123302402	2
10	1835116	205.365780069	0
10	1836702	205.505234783	0
10	1838458	205.647116774	0
10	1838784	205.690191375	0
10	1839161	205.722420561	0
10	1839610	205.755975863	0
10	1840089	205.804283042	1
10	1842951	206.058293361	0
10	1843079	206.071018188	2
10	1843739	206.135847421	2
10	1845066	206.250997733	1
10	1845826	206.313211211	1
10	1846851	206.387074318	1
10	1849505	206.56731389	0
10	1850167	206.620159084	0
10	1850404	206.64188747	0
10	1851261	206.728984418	0
10	1853020	206.917225947	0
10	1853306	206.933921066	0
10	1856613	207.218485904	0
10	1858872	207.40296561	0
10	1859175	207.421467374	2
10	1860417	207.505676928	0
10	1864264	207.801200424	3
10	1865000	207.85451312	0
10	1865885	207.941351968	0
10	1869526	208.356946059	0
10	1870328	208.45892811	0
10	1871052	208.54740473	3
10	1872444	208.689677237	0
10	1873830	208.803086846	4
10	1875081	208.920801057	0
10	1878303	209.236397205	4
10	1879152	209.31887774	0
10	1879796	209.383962453	2
10	1881503	209.497899102	0
10	1882628	209.56581857	0
10	1883194	209.58905342	3
10	1884825	209.680485658	0
10	1887115	209.847099018	0
10	1887128	209.848384283	1
10	1888044	209.904024025	0
10	1891837	210.259408717	1
10	1892661	210.331495177	0
10	1893225	210.38438578	2
10	1895321	210.561318542	2
10	1895544	210.580058723	0
10	1896075	210.625750376	2
10	1896334	210.64338427	0
10	1897945	210.790290101	0
10	1898285	210.825018212	3
10	1899601	210.993036658	0
10	1899702	211.002405218	0
10	1901605	211.166753473	0
10	1902650	211.243018985	2
10	1905294	211.452264487	2
10	1906328	211.558968308	2
10	1906691	211.596106473	0
10	1908674	211.792015463	0
10	1910772	211.977125625	1
10	1913378	212.237982163	0
10	1913915	212.276023397	2
10	1914277	212.311497957	0
10	1914485	212.329029644	0
10	1917575	212.622029358	0
10	1917826	212.648901771	2
10	1917894	212.652625018	0
10	1920447	212.876617921	0
10	1920678	212.897036793	3
10	1923026	213.118349868	0
10	1924414	213.263409578	0
10	1928170	213.768334897	0
10	1928319	213.783607921	0
10	1928656	213.823073707	3
10	1929301	213.894830677	0
10	1929581	213.924871254	0
10	1930138	213.978491748	0
10	1931358	214.102157334	0
10	1931368	214.1038932	5
10	1931842	214.135991957	0
10	1934533	214.285600392	0
10	1935016	214.305669751	0
10	1939503	214.602594836	0
10	1939837	214.623195128	5
10	1940962	214.703100957	4
10	1944582	214.980587666	0
10	1944912	215.008329899	0
10	1946135	215.11927495	0
10	1946638	215.173390444	0
10	1947639	215.283164437	0
10	1949965	215.44032407	0
10	1954739	215.716357055	0
10	1961202	216.204335358	1
10	1961325	216.221291655	0
10	1961786	216.263925436	0
10	1962977	216.411228691	0
10	1963185	216.43156572	0
10	1964374	216.612029904	0
10	1964995	216.73592442	0
10	1968340	217.084028358	0
10	1968516	217.096319611	3
10	1969613	217.157616537	6
10	1969872	217.169378395	1
10	1973325	217.40034522	0
10	1974336	217.468661129	0
10	1975884	217.581366513	0
10	1977046	217.657505155	0
10	1977783	217.710627649	0
10	1980814	217.893841017	0
10	1980936	217.900446033	0
10	1982311	217.984190136	1
10	1984906	218.199005278	4
10	1987134	218.470891212	1
10	1987895	218.549202138	0
10	1989163	218.66716633	1
10	1989439	218.683480343	5
10	1991283	218.790478001	0
10	1992477	218.889095735	0
10	1992621	218.904201486	0
10	1992916	218.946218647	0
10	1999072	219.482294278	1
10	2000220	219.563284331	0
10	2000573	219.597465611	0
10	2001189	219.65263928	0
10	2004998	220.012558894	0
10	2005273	220.034965826	0
10	2005325	220.037490517	0
10	2005622	220.061731964	5
10	2006027	220.089060732	1
10	2006099	220.095821976	0
10	2007043	220.180435139	1
10	2007210	220.192647673	4
10	2007327	220.197428839	3
10	2010754	220.456377833	0
10	2011509	220.514547519	1
10	2015889	220.765567667	3
10	2017458	220.868561682	1
10	2017859	220.903669889	2
10	2018097	220.924091866	0
10	2018369	220.941605239	0
10	2020845	221.17257976	0
10	2021067	221.194557256	0
10	2021830	221.273179199	0
10	2022074	221.295329769	0
10	2022278	221.310729602	0
10	2025135	221.56928172	0
10	2027996	221.737655381	0
10	2032661	221.99735983	3
10	2036990	222.267078005	0
10	2037897	222.328254839	2
10	2041000	222.549384842	0
10	2043127	222.740021294	0
10	2043797	222.815177443	0
10	2043868	222.821280932	0
10	2044313	222.883422157	3
10	2045839	223.031598546	0
10	2046966	223.156047371	0
10	2047536	223.205916935	0
10	2047689	223.217829163	0
10	2048613	223.286078674	3
10	2051089	223.474344759	3
10	2051410	223.496813885	0
10	2052675	223.585936111	1
10	2053046	223.610910077	0
10	2053852	223.679253413	6
10	2054343	223.706491969	5
10	2058217	224.00595192	0
10	2059084	224.102908244	0
10	2059670	224.15356898	0
10	2060773	224.237732538	0
10	2061354	224.279427363	2
10	2065444	224.592069414	1
10	2067397	224.768678629	1
10	2067484	224.775338747	0
10	2067791	224.792303233	2
10	2068848	224.851841989	0
10	2071094	225.001762114	0
10	2071762	225.055867333	0
10	2072997	225.145563952	0
10	2073212	225.164002928	1
10	2074247	225.224563677	0
10	2076643	225.387432583	0
10	2077305	225.452009155	0
10	2078387	225.551729402	0
10	2078988	225.606070908	1
10	2081944	225.870078641	0
10	2088188	226.413872462	0
10	2089943	226.493244271	0
10	2092999	226.665743197	0
10	2094163	226.724112763	1
10	2094182	226.724793044	0
10	2096856	226.913280553	0
10	2099493	227.177668205	1
10	2101826	227.353883176	0
10	2103812	227.531322261	2
10	2105771	227.784721776	5
10	2106411	227.864740559	1
10	2106565	227.884386986	0
10	2109074	228.064180281	0
10	2109231	228.074792325	1
10	2110325	228.161427518	0
10	2113660	228.419876413	5
10	2114179	228.472094104	0
10	2114371	228.49371628	1
10	2116080	228.670040318	0
10	2117646	228.812728461	3
10	2117762	228.816020346	2
10	2121477	229.077570087	0
10	2121543	229.085928651	0
10	2122335	229.156506323	0
10	2125253	229.39788078	0
10	2125399	229.404377213	3
10	2126723	229.488815441	0
10	2128536	229.597788027	0
10	2128775	229.61177482	0
10	2129834	229.676583626	0
10	2140829	230.64754428	0
10	2140974	230.658908344	0
10	2141301	230.693706963	1
10	2142351	230.829815639	0
10	2143595	230.961079435	0
10	2144683	231.055090845	1
10	2144732	231.058840174	4
10	2147716	231.247118065	0
10	2151012	231.439008714	0
10	2155383	231.658078206	0
10	2156523	231.744710205	0
10	2157396	231.81768701	1
10	2165507	232.361109804	0
10	2167150	232.496901725	0
10	2167451	232.522725157	0
10	2167743	232.545118367	0
10	2168327	232.598481722	0
10	2170727	232.799648984	3
10	2170957	232.825307836	0
10	2172232	232.911785774	1
10	2173481	232.981847508	0
10	2174192	233.033637677	2
10	2175580	233.134731101	1
10	2177893	233.346425925	0
10	2183107	233.939471075	4
10	2185063	234.136824041	5
10	2186158	234.255145883	2
10	2187488	234.402377583	1
10	2189213	234.525710627	0
10	2194763	234.919167831	0
10	2197993	235.150784865	4
10	2198136	235.156334772	2
10	2201525	235.349734835	1
10	2204843	235.500044379	0
10	2209150	235.76816023	0
10	2215150	236.240454492	2
10	2216848	236.371048306	2
10	2218625	236.55572815	1
10	2218857	236.572947218	1
10	2222341	236.853069462	0
10	2225324	236.953701528	0
10	2228158	237.079809028	0
10	2228768	237.101262361	2
10	2229594	237.139780755	0
10	2233974	237.453212063	0
10	2237249	237.701372018	1
10	2237395	237.717260028	1
10	2238366	237.799480085	0
10	2241046	238.116381359	0
10	2243126	238.282594725	1
10	2244281	238.376422352	3
10	2247212	238.523040024	0
10	2248689	238.591519718	0
10	2250793	238.757053563	0
10	2251584	238.819576851	1
10	2252932	238.950610538	0
10	2259255	239.378103725	0
10	2261937	239.564896692	0
10	2263151	239.680757382	0
10	2264608	239.801978958	0
10	2265286	239.861970991	0
10	2266011	239.93063448	1
10	2266645	239.978203102	0
10	2267510	240.069507289	2
10	2268203	240.145760691	0
10	2268606	240.215126547	0
10	2271168	240.43888579	1
10	2272129	240.511937229	3
10	2272248	240.520882665	0
10	2277748	240.833926827	3
10	2280492	240.972422556	0
10	2283710	241.265692824	0
10	2285120	241.39602817	0
10	2290559	241.844961757	1
10	2290805	241.862510034	0
10	2292754	241.980515778	0
10	2294291	242.093864862	2
10	2297427	242.270794579	1
10	2299367	242.373814632	0
10	2300365	242.414107998	6
10	2305389	242.701030418	0
10	2307849	242.849257669	0
10	2310148	243.005254641	0
10	2314618	243.34398527	0
10	2318207	243.574985946	0
10	2318690	243.598991171	0
10	2322876	243.768112118	4
10	2323560	243.801544263	1
10	2325964	243.913986766	1
10	2326157	243.917119893	0
10	2328646	244.04590439	0
10	2330651	244.155276043	0
10	2331291	244.195318859	2
10	2331872	244.226781165	2
10	2331996	244.232952264	0
10	2332949	244.277909773	1
10	2337055	244.537803888	2
10	2337631	244.583992989	0
10	2338000	244.613930351	0
10	2339610	244.766548695	0
10	2339712	244.776266442	0
10	2341560	244.967627304	2
10	2341822	244.989259856	0
10	2343230	245.103834212	0
10	2343814	245.186513694	0
10	2344130	245.224056516	3
10	2345006	245.324620892	1
10	2345182	245.34131904	1
10	2346634	245.439287655	0
10	2351779	245.783813884	2
10	2353158	245.852192906	0
10	2355720	245.963496616	0
10	2355890	245.970734705	0
10	2358250	246.097380019	0
10	2359021	246.154252365	0
10	2360643	246.285964374	0
10	2361348	246.34883463	0
10	2361824	246.3631199	0
10	2362140	246.390490023	3
10	2362408	246.415286752	2
10	2363224	246.494155339	0
10	2365950	246.725788643	0
10	2366357	246.770328937	3
10	2367909	246.906594492	1
10	2369689	247.021014399	1
10	2372900	247.267012179	0
10	2374287	247.362192933	0
10	2376460	247.508586732	3
10	2377050	247.54258831	3
10	2379773	247.6792156	0
10	2380090	247.704091736	0
10	2382156	247.834178261	0
10	2382987	247.896617588	0
10	2383362	247.918859856	1
10	2388018	248.280173407	0
10	2388601	248.335317278	0
10	2388867	248.347303466	6
10	2392948	248.604603632	0
10	2392995	248.608009109	0
10	2397321	249.006635128	0
10	2397739	249.04571719	0
10	2398097	249.073392162	0
10	2398406	249.092491377	15
10	2399640	249.147813659	1
10	2406884	249.59221483	5
10	2407006	249.596354715	0
10	2407916	249.658055759	0
10	2411442	249.867170381	0
10	2416103	250.119716753	0
10	2418202	250.279077328	0
10	2418403	250.300268922	3
10	2418785	250.334207204	0
10	2420526	250.471828337	1
10	2421122	250.536920662	0
10	2422029	250.599414746	2
10	2422364	250.625177484	1
10	2422398	250.628566255	1
10	2425103	250.796332121	0
10	2428199	251.063819281	0
10	2429072	251.148049639	7
10	2432421	251.375332461	0
10	2434037	251.493217391	1
10	2440286	252.169676859	4
10	2441096	252.231192547	1
10	2441677	252.27314159	0
10	2442034	252.296409814	0
10	2442131	252.302658296	1
10	2445968	252.534350579	0
10	2448331	252.709507046	1
10	2449618	252.830147942	0
10	2450701	252.926168585	2
10	2452834	253.099225959	0
10	2454442	253.215835284	1
10	2464392	254.105383303	0
10	2465291	254.188913828	0
10	2465955	254.294945953	0
10	2467653	254.539542563	0
10	2468453	254.673525513	3
10	2470244	255.003172184	0
10	2471391	255.207664376	0
10	2472469	255.36833396	0
10	2472872	255.435515835	4
10	2473384	255.476544819	1
10	2474147	255.553817942	3
10	2482404	256.302698013	2
10	2483827	256.430635681	0
10	2484661	256.524053689	0
10	2484680	256.527835433	0
10	2485929	256.680272331	4
10	2488730	256.975167998	0
10	2489456	257.060263576	2
10	2493231	257.486612284	3
10	2497293	257.814179694	0
10	2502255	258.19207642	0
10	2503128	258.247311533	3
10	2511048	258.655813432	0
10	2512451	258.809662829	0
10	2513901	259.01348514	1
10	2524345	260.078139822	3
10	2526433	260.281269824	0
10	2531966	260.747727682	0
10	2532409	260.786065085	0
10	2532473	260.798557709	3
10	2536631	261.082709048	4
10	2537174	261.12120312	1
10	2542315	261.486485951	1
10	2546885	261.92313157	0
10	2551921	262.379449432	0
10	2552332	262.435356613	5
10	2554198	262.579923075	3
10	2563667	263.281566822	0
10	2564291	263.326407309	0
10	2564460	263.33827762	0
10	2565492	263.399415242	0
10	2570172	263.913725548	2
10	2570791	263.999467321	5
10	2571203	264.067197722	0
10	2577609	264.714112558	0
10	2579059	264.877447256	3
10	2580411	264.97747746	2
10	2581117	265.037782817	0
10	2581197	265.049111961	5
10	2584541	265.282905268	0
10	2584954	265.307537755	1
10	2585607	265.343747669	2
10	2594014	266.095565924	0
10	2595167	266.267429293	3
10	2595784	266.35535759	3
10	2596710	266.466231483	0
10	2603584	267.150729081	1
10	2604563	267.21708887	1
10	2605170	267.263854232	2
10	2605281	267.269878029	3
10	2606887	267.384437001	0
10	2607994	267.481184362	0
10	2610273	267.71383912	2
10	2610648	267.752076046	0
10	2612854	267.968422498	0
10	2617077	268.307320976	0
10	2617380	268.331239091	0
10	2623654	268.715957106	0
10	2627032	268.973284201	0
10	2627790	269.048847002	1
10	2631896	269.407670191	1
10	2635326	269.723172035	1
10	2641899	270.249413048	3
10	2642345	270.285074242	2
10	2648028	270.68507011	2
10	2649664	270.820429723	0
10	2661529	271.785735522	0
10	2664883	271.99234182	2
10	2665181	272.011449717	0
10	2672789	272.647309513	2
10	2683222	273.582095973	0
10	2684036	273.68321932	0
10	2685388	273.842097856	1
10	2686259	273.921461533	0
10	2688337	274.112538484	2
10	2690749	274.215286771	1
10	2692838	274.310040493	0
10	2693609	274.346715825	0
10	2695391	274.440431171	0
10	2697627	274.599949109	1
10	2698603	274.697983345	2
10	2703106	275.142978506	0
10	2704258	275.259807712	0
10	2713657	275.814927919	2
10	2713850	275.825872096	0
10	2716423	275.985389719	0
10	2722781	276.489115087	0
10	2732895	277.176147482	0
10	2735333	277.298613312	2
10	2736090	277.33877204	7
10	2737461	277.425943525	1
10	2739740	277.650131052	0
10	2744400	277.95182449	0
10	2744631	277.967647935	0
10	2758082	278.803528678	2
10	2759246	278.865022619	2
10	2762166	278.984681287	0
10	2767126	279.315542672	0
10	2768528	279.424320974	0
10	2770300	279.538746783	4
10	2776160	279.824553731	0
10	2778202	279.947230798	3
10	2780952	280.144840391	0
10	2789469	280.541675699	1
10	2796520	281.011190527	0
10	2808356	281.717474682	0
10	2811464	281.958529894	1
10	2817531	282.213323563	0
10	2819396	282.33467386	0
10	2821596	282.44596604	2
10	2824370	282.584582725	1
10	2824869	282.626642933	0
10	2825241	282.668970385	1
10	2829343	282.987460663	0
10	2832972	283.156688883	2
10	2836735	283.42313944	1
10	2840384	283.667860022	0
10	2841214	283.718906674	0
10	2842092	283.77491561	1
10	2843704	283.885792511	0
10	2849426	284.207720343	3
10	2849905	284.229313902	0
10	2850035	284.234748053	0
10	2851987	284.386820818	4
10	2856244	284.584038544	0
10	2858461	284.636162508	0
10	2859833	284.704537018	1
10	2869085	285.299213549	0
10	2872648	285.493250706	3
10	2875505	285.62304276	0
10	2878408	285.822605712	6
10	2881035	285.983597987	0
10	2882097	286.031466296	0
10	2884752	286.165738317	2
10	2887442	286.303552888	2
10	2888146	286.345995552	0
10	2889840	286.484304956	0
10	2890783	286.580792309	0
10	2891163	286.605572854	0
10	2892073	286.697166505	3
10	2894242	286.866194295	0
10	2894460	286.877964654	4
10	2896280	287.016034091	0
10	2905663	287.587315586	0
10	2906945	287.678759078	0
10	2913962	288.035668437	2
10	2918654	288.333271706	0
10	2918684	288.335402408	0
10	2922189	288.572593568	1
10	2922804	288.607509663	7
10	2926779	288.888434568	2
10	2928628	289.025964575	0
10	2929365	289.08398878	0
10	2932572	289.30770429	2
10	2935284	289.454179345	0
10	2938376	289.609373193	8
10	2940529	289.712123504	2
10	2943424	289.841494199	1
10	2945068	289.933797179	2
10	2949186	290.131861133	0
10	2949561	290.154713719	1
10	2955689	290.465349028	1
10	2960502	290.723190798	0
10	2961233	290.763360966	2
10	2962547	290.829534969	2
10	2966616	291.037092375	0
10	2974045	291.374875381	0
10	2974556	291.399889671	0
10	2976178	291.495315007	3
10	2976940	291.522267086	0
10	2977769	291.559132379	2
10	2979382	291.649284313	1
10	2991056	292.484644645	2
10	2993307	292.593647552	2
10	2993512	292.603721763	0
10	2993978	292.624208345	6
10	2997864	292.831439839	0
10	2998311	292.863371006	1
10	2999552	292.92276939	0
10	2999840	292.944940682	0
10	3001049	293.014151022	3
10	3004443	293.19710371	3
10	3007160	293.37960617	0
10	3010719	293.51865527	0
10	3014368	293.746528448	0
10	3017411	294.056114478	3
10	3017572	294.066766013	1
10	3017772	294.078255398	3
10	3022725	294.309759881	1
10	3029089	294.607062362	0
10	3029691	294.64577504	0
10	3040505	295.447112843	3
10	3046355	295.750477693	1
10	3050438	295.985789805	0
10	3051606	296.059843006	0
10	3053070	296.170699273	0
10	3053353	296.196274803	1
10	3056764	296.440527314	1
10	3057082	296.459307705	0
10	3057403	296.479543024	0
10	3059103	296.595598899	0
10	3059448	296.624062836	1
10	3062730	296.880975259	3
10	3063516	296.942166518	1
10	3065477	297.073116784	3
10	3070401	297.39314682	2
10	3070459	297.395983678	0
10	3070579	297.40939637	0
10	3073314	297.677616569	3
10	3074124	297.730988256	0
10	3076472	297.852712106	0
10	3081969	298.213079422	0
10	3082347	298.239200795	1
10	3083526	298.329416159	0
10	3083915	298.352203433	0
10	3086373	298.526690862	0
10	3087814	298.622889723	1
10	3088906	298.666069521	0
10	3091372	298.815248061	0
10	3093924	298.972374203	0
10	3096513	299.163563793	0
10	3097485	299.223894035	2
10	3099328	299.340402903	2
10	3100649	299.431788025	0
10	3100778	299.440298362	0
10	3103130	299.602535005	0
10	3104055	299.664196796	1
10	3107830	299.917796656	0
10	3107840	299.918653771	0
10	3107942	299.927762687	0
10	3110010	300.077409107	0
10	3121994	300.767581751	1
10	3125219	300.988316317	0
10	3125706	301.01982733	0
10	3128803	301.222180859	0
10	3129290	301.258227597	0
10	3131151	301.424037604	0
10	3132587	301.538100598	1
10	3136567	301.75200713	0
10	3136892	301.772825555	0
10	3146421	302.280043038	0
10	3146992	302.309676217	0
10	3150764	302.792522031	0
10	3150901	302.816684118	0
10	3151666	302.926738392	0
10	3151967	302.958997457	1
10	3153498	303.103332227	0
10	3154514	303.164499703	2
10	3155029	303.211586298	0
10	3157096	303.356192904	0
10	3158539	303.465493256	2
10	3161138	303.590225623	0
10	3164916	303.786237372	1
10	3166904	303.905758956	3
10	3171360	304.197880974	0
10	3171441	304.207196704	0
10	3171719	304.230221867	1
10	3176672	304.536185124	0
10	3180817	304.797010425	0
10	3181168	304.832078013	0
10	3181629	304.860979936	0
10	3182400	304.932218362	1
10	3184251	305.123302402	0
10	3190327	305.505234783	0
10	3193130	305.687857921	0
10	3193308	305.690191375	0
10	3198620	305.991822862	0
10	3200039	306.058293361	0
10	3200719	306.071018188	0
10	3201897	306.135847421	0
10	3203952	306.250997733	3
10	3204479	306.291617196	2
10	3205416	306.375259894	4
10	3205575	306.387074318	1
10	3206890	306.486310211	2
10	3209047	306.64188747	0
10	3210900	306.799119915	6
10	3212589	306.917225947	0
10	3212836	306.933921066	0
10	3216508	307.159507753	3
10	3217854	307.218485904	0
10	3221139	307.40296561	0
10	3221483	307.421467374	0
10	3222509	307.499726416	1
10	3222648	307.505676928	0
10	3225601	307.672637078	2
10	3228204	307.801200424	0
10	3236381	308.356946059	0
10	3238174	308.45892811	0
10	3242489	308.803086846	0
10	3243429	308.920801057	0
10	3243947	308.969715795	2
10	3245213	309.086178212	1
10	3247287	309.226757008	0
10	3249146	309.31887774	0
10	3251665	309.56581857	4
10	3251951	309.58905342	0
10	3252755	309.680485658	0
10	3254652	309.904024025	1
10	3262208	310.55441721	4
10	3262409	310.561318542	0
10	3262615	310.580058723	0
10	3263635	310.625750376	0
10	3263798	310.64338427	0
10	3263869	310.649381793	3
10	3264422	310.673698332	2
10	3265989	310.743372184	5
10	3267935	310.825018212	0
10	3270994	310.993036658	0
10	3271072	311.002405218	4
10	3275072	311.241600946	4
10	3278637	311.452264487	0
10	3281226	311.596106473	6
10	3284329	311.792015463	0
10	3285238	311.844877477	0
10	3285411	311.854514592	5
10	3293587	312.237982163	0
10	3294141	312.276023397	0
10	3294788	312.309598957	1
10	3294929	312.311497957	0
10	3295321	312.329029644	0
10	3299215	312.622029358	0
10	3299479	312.648901771	1
10	3299514	312.652625018	1
10	3299769	312.689697748	1
10	3302789	312.876617921	0
10	3303100	312.897036793	0
10	3308216	313.263409578	0