version 2
run KademliaDHT-2-20211202-22:02:02-9356
attr Lifetime 300s
attr configname KademliaDHT
attr datetime 20211202-22:02:02
attr experiment KademliaDHT
attr inifile configs.ini
attr iterationvars $Lifetime=300s
attr iterationvars2 "$Lifetime=300s, $repetition=0"
attr measurement $Lifetime=300s
attr network oversim.underlay.simpleunderlay.SimpleUnderlayNetwork
attr processid 9356
attr repetition 0
attr replication #0
attr resultdir results
attr runnumber 2
attr seedset 2

vector 15  SimpleUnderlayNetwork.globalObserver.globalStatistics  "GlobalNodeList: Number of nodes"  ETV
vector 16  SimpleUnderlayNetwork.globalObserver.globalStatistics  "GlobalDhtTestMap: Number of stored DHT entries"  ETV
vector 17  SimpleUnderlayNetwork.globalObserver.globalStatistics  "Kademlia: Buckets Refreshed Per Task"  ETV
vector 18  SimpleUnderlayNetwork.globalObserver.globalStatistics  "LifetimeChurn: Session Time"  ETV
vector 19  SimpleUnderlayNetwork.globalObserver.globalStatistics  "LifetimeChurn: Time between creates"  ETV
vector 20  SimpleUnderlayNetwork.globalObserver.globalStatistics  "LifetimeChurn: Time between deletes"  ETV
15	1268637	150	523
15	1846625	200	523
15	2431900	250	523
15	3043701	300	525
15	3728662	350	527
15	4364690	400	503
15	5057183	450	505
15	5757484	500	520
15	6515680	550	531
15	7139254	600	502
15	7788816	650	508
15	8410488	700	504
15	9024431	750	500
15	9639391	800	492
15	10275711	850	522
15	10916472	900	508
15	11531851	950	497
15	12132152	1000	486
15	12842050	1050	494
15	13557573	1100	491
16	1268638	150	680
16	1385789	160	769
16	1505115	170	837
16	1610587	180	898
16	1717102	190	961
16	1846626	200	1031
16	1965276	210	1119
16	2078229	220	1202
16	2192224	230	1264
16	2317157	240	1336
16	2431901	250	1405
16	2549676	260	1487
16	2686321	270	1571
16	2806828	280	1649
16	2922165	290	1710
16	3043702	300	1779
16	3177009	310	1856
16	3307751	320	1938
16	3440240	330	2014
16	3567318	340	2094
16	3728663	350	2160
16	3865646	360	2218
16	3994217	370	2215
16	4122232	380	2207
16	4247798	390	2194
16	4364691	400	2178
16	4530922	410	2180
16	4681499	420	2197
16	4800009	430	2211
16	4935035	440	2218
16	5057184	450	2197
16	5209075	460	2173
16	5369164	470	2190
16	5500596	480	2205
16	5627742	490	2206
16	5757485	500	2201
16	5900722	510	2187
16	6066290	520	2185
16	6231543	530	2214
16	6382372	540	2228
16	6515681	550	2220
16	6649452	560	2208
16	6764437	570	2198
16	6881406	580	2194
16	7014930	590	2231
16	7139255	600	2236
16	7280565	610	2223
16	7415386	620	2216
16	7550443	630	2202
16	7675430	640	2206
16	7788817	650	2215
16	7923719	660	2208
16	8067505	670	2222
16	8180214	680	2239
16	8290424	690	2226
16	8410489	700	2238
16	8522794	710	2240
16	8650777	720	2233
16	8766835	730	2238
16	8891265	740	2221
16	9024432	750	2226
16	9157769	760	2232
16	9282822	770	2213
16	9393600	780	2205
16	9511402	790	2220
16	9639392	800	2214
16	9757000	810	2216
16	9881662	820	2212
16	9999027	830	2188
16	10128576	840	2180
16	10275712	850	2183
16	10414981	860	2201
16	10538023	870	2201
16	10655942	880	2195
16	10777848	890	2173
16	10916473	900	2163
16	11048710	910	2174
16	11156813	920	2178
16	11279378	930	2197
16	11396964	940	2178
16	11531852	950	2164
16	11645666	960	2189
16	11764104	970	2183
16	11890491	980	2169
16	12018640	990	2189
16	12132153	1000	2174
16	12262532	1010	2167
16	12405872	1020	2177
16	12553020	1030	2163
16	12697454	1040	2190
16	12842051	1050	2185
16	12986716	1060	2171
16	13135842	1070	2173
16	13275806	1080	2176
16	13417154	1090	2170
16	13557574	1100	2192
16	13687814	1110	2189
16	13828712	1120	2172
16	13952162	1130	2169
16	14056589	1140	2162
17	1270314	150.175977389	1
17	1270961	150.241807038	0
17	1271596	150.300016326	1
17	1271907	150.32869047	0
17	1272145	150.344957352	0
17	1272639	150.383187592	2
17	1274576	150.522944458	0
17	1274975	150.548990503	0
17	1276699	150.669581105	0
17	1278130	150.759015112	1
17	1283439	151.101641168	1
17	1286821	151.350343009	0
17	1292600	151.785087172	0
17	1293334	151.841217802	2
17	1295219	151.97954915	2
17	1299676	152.276776307	0
17	1299789	152.282736424	1
17	1302279	152.476421048	0
17	1302363	152.486134686	5
17	1304525	152.646034742	0
17	1306507	152.774136734	3
17	1309886	153.044289104	2
17	1310106	153.056842711	3
17	1317136	153.653588992	4
17	1318857	153.781303139	2
17	1324130	154.312488115	0
17	1324655	154.380012155	0
17	1329043	154.844640951	0
17	1332066	155.157921241	0
17	1333176	155.276744067	0
17	1333502	155.310266845	3
17	1334308	155.384733969	2
17	1335329	155.465904808	7
17	1335810	155.49094315	0
17	1341128	155.826185351	1
17	1347279	156.288739367	6
17	1353481	156.8780533	0
17	1354372	156.973605864	2
17	1356509	157.234467115	0
17	1359191	157.555401613	0
17	1360006	157.630358215	0
17	1364755	158.138947885	0
17	1365296	158.225869235	2
17	1365537	158.256458553	4
17	1375585	159.213327561	3
17	1380341	159.58911154	0
17	1391297	160.646801381	6
17	1393959	160.932051136	0
17	1399712	161.389296962	8
17	1403679	161.684136816	0
17	1405571	161.837039912	2
17	1409098	162.176565246	2
17	1415156	162.696681577	0
17	1420621	163.184094613	0
17	1425810	163.670496249	0
17	1427861	163.819732328	0
17	1429518	163.964106738	1
17	1430098	164.032873905	4
17	1431259	164.183548819	0
17	1434236	164.446978274	2
17	1434263	164.448613319	0
17	1445083	165.188537558	2
17	1446939	165.285111053	0
17	1454965	165.75688619	1
17	1455896	165.82386218	3
17	1466915	166.589735569	0
17	1467115	166.603745947	0
17	1470422	166.886875314	2
17	1471073	166.942957755	1
17	1479883	167.725627146	6
17	1484984	168.27741244	4
17	1485488	168.326691608	0
17	1489863	168.642778734	0
17	1492502	168.844695564	2
17	1494404	168.999804003	2
17	1495827	169.123688035	3
17	1497667	169.278132335	0
17	1508016	170.311397894	0
17	1510537	170.608461525	0
17	1511962	170.85063778	2
17	1524245	172.053143274	0
17	1527343	172.286892431	0
17	1527491	172.296893997	1
17	1527748	172.324487744	0
17	1530014	172.529744591	3
17	1531837	172.653909828	1
17	1539138	173.04573953	0
17	1541258	173.215603594	1
17	1542186	173.306380993	1
17	1542366	173.322080444	2
17	1543321	173.424856822	0
17	1547676	173.832377139	0
17	1548196	173.878717171	0
17	1548266	173.885705682	0
17	1550150	174.096768922	1
17	1553834	174.46771737	1
17	1556453	174.656693733	2
17	1562427	174.999888498	1
17	1563835	175.082104612	1
17	1567106	175.343029869	0
17	1568817	175.560273339	0
17	1576773	176.33238553	0
17	1586764	177.485232626	0
17	1588292	177.654001162	4
17	1589624	177.807196177	1
17	1595676	178.545977728	0
17	1597873	178.894460224	0
17	1598412	178.94655312	0
17	1598698	178.980480315	0
17	1604197	179.442323573	0
17	1610893	180.034407398	2
17	1611733	180.125698652	2
17	1613715	180.36654116	1
17	1616662	180.706264514	2
17	1622777	181.321549728	3
17	1627559	181.780824007	1
17	1628813	181.886876111	6
17	1634752	182.393014542	0
17	1647387	183.573914653	4
17	1654194	184.327433872	0
17	1655705	184.558312643	2
17	1656113	184.599117576	0
17	1666887	185.440788105	2
17	1666979	185.456004172	0
17	1667355	185.517074561	7
17	1667426	185.520008613	1
17	1667507	185.524810706	0
17	1674270	186.252334137	1
17	1679699	186.755144515	1
17	1681734	186.903914106	1
17	1687340	187.274695646	3
17	1689713	187.471554052	0
17	1690498	187.528173792	4
17	1692100	187.634759855	0
17	1695477	187.923074492	0
17	1695846	187.953229305	2
17	1698215	188.218657622	2
17	1699559	188.373032551	5
17	1701038	188.573384508	0
17	1701508	188.664632946	2
17	1702856	188.828814339	0
17	1726916	190.852343543	3
17	1729150	191.026520401	0
17	1729252	191.032671551	1
17	1729600	191.059069283	0
17	1737387	191.515377711	2
17	1739773	191.654916794	5
17	1743768	191.879857635	3
17	1744478	191.917507675	0
17	1747998	192.153544954	3
17	1748238	192.165060414	1
17	1748337	192.170077183	1
17	1749926	192.265694473	1
17	1754540	192.67636501	0
17	1756344	192.816737926	4
17	1767274	193.525777342	1
17	1769690	193.755994051	0
17	1769965	193.774975478	1
17	1781172	194.685030848	6
17	1781318	194.694216482	3
17	1785628	194.930529607	1
17	1793297	195.658186922	1
17	1793536	195.680159744	7
17	1804481	196.422390015	0
17	1805919	196.54397818	0
17	1809547	196.914831324	0
17	1814570	197.316495691	3
17	1820367	197.668269909	2
17	1822688	197.79629818	1
17	1826886	198.178576361	0
17	1828700	198.391946288	0
17	1830087	198.525818666	0
17	1831688	198.693423413	1
17	1832733	198.81436355	0
17	1834780	198.964844311	2
17	1838271	199.164997631	0
17	1839939	199.266539397	2
17	1840864	199.333487022	0
17	1847563	200.112916071	0
17	1849280	200.273941343	5
17	1851876	200.44974616	3
17	1854517	200.652056247	1
17	1859350	201.11756928	0
17	1859540	201.139989124	0
17	1861933	201.351330607	3
17	1863987	201.537253494	0
17	1864816	201.609020956	2
17	1864964	201.623335368	1
17	1866671	201.783436203	0
17	1868543	201.940415549	4
17	1871212	202.122014008	0
17	1871527	202.146653412	0
17	1871670	202.156973229	0
17	1872389	202.220738379	0
17	1874594	202.396777857	0
17	1874702	202.40854084	0
17	1875714	202.500597952	1
17	1876792	202.58846362	1
17	1877762	202.683257186	0
17	1880060	202.892814576	0
17	1881023	202.976832005	0
17	1882419	203.067568403	0
17	1882722	203.091335241	1
17	1883122	203.124491802	1
17	1885203	203.286940196	1
17	1886099	203.377213549	0
17	1889201	203.599588843	0
17	1891483	203.841331862	0
17	1891849	203.887142764	2
17	1891886	203.889845149	0
17	1891966	203.898346359	0
17	1896838	204.387044675	0
17	1900333	204.67059338	3
17	1900438	204.679098825	1
17	1902978	204.926046512	0
17	1903826	205.014045718	0
17	1905838	205.211668853	0
17	1905854	205.212793706	0
17	1908168	205.412398128	1
17	1908850	205.451530009	0
17	1912025	205.64989087	0
17	1914277	205.829077796	0
17	1914544	205.853891671	4
17	1914914	205.885565972	0
17	1915389	205.924404593	3
17	1915473	205.928476291	0
17	1916889	206.048314938	0
17	1918714	206.172798949	1
17	1919935	206.254118845	2
17	1923667	206.518622369	0
17	1926606	206.801727141	1
17	1930739	207.163613942	0
17	1930822	207.170328197	0
17	1931671	207.249639429	0
17	1932282	207.300806535	0
17	1934043	207.476764039	0
17	1934804	207.563465796	1
17	1936672	207.722848262	0
17	1936973	207.751645366	0
17	1939620	207.988720471	0
17	1941490	208.14817032	0
17	1941511	208.149656187	0
17	1942574	208.259979093	0
17	1942732	208.280087769	0
17	1942747	208.282386418	2
17	1944172	208.40293644	0
17	1944743	208.455821765	1
17	1944998	208.474232027	3
17	1945340	208.495119948	0
17	1946945	208.625122267	1
17	1947812	208.685706898	5
17	1949223	208.789082965	0
17	1951361	208.933918843	3
17	1952032	208.982115588	4
17	1953434	209.090938415	0
17	1954633	209.196962236	3
17	1955276	209.248931732	0
17	1957944	209.422062739	0
17	1958196	209.436562164	0
17	1960309	209.575990444	0
17	1961220	209.643958162	0
17	1962293	209.724752697	0
17	1964940	209.973144674	0
17	1966485	210.124272988	0
17	1974894	210.863596256	0
17	1975630	210.921302349	1
17	1975739	210.928642853	2
17	1977639	211.051445482	0
17	1978456	211.109653339	0
17	1979494	211.176887001	0
17	1983396	211.495336356	0
17	1985427	211.65086211	0
17	1987969	211.863287326	1
17	1989480	211.979007083	0
17	1990960	212.091589073	0
17	1991936	212.208261425	0
17	1992179	212.231858783	0
17	1992194	212.233397701	0
17	1994428	212.441799365	0
17	1999436	212.931001943	2
17	2001792	213.17102342	0
17	2002962	213.285782761	0
17	2003138	213.299722683	1
17	2006847	213.558664452	0
17	2007338	213.59049212	0
17	2008979	213.708425027	1
17	2014783	214.147753956	0
17	2015742	214.215091582	1
17	2017933	214.375045224	0
17	2018745	214.441123598	2
17	2019002	214.46028594	0
17	2020805	214.647685349	2
17	2020877	214.651259415	2
17	2020998	214.663773262	1
17	2021731	214.743326209	0
17	2024337	215.014487885	0
17	2025136	215.091596176	3
17	2028070	215.35675102	0
17	2028078	215.357142228	3
17	2029037	215.451914873	0
17	2029907	215.538008803	0
17	2029975	215.549117748	0
17	2030738	215.627565379	0
17	2032371	215.799911943	4
17	2034032	215.984207324	0
17	2034253	216.012671548	0
17	2034615	216.062862964	0
17	2036096	216.257798201	0
17	2036097	216.258507789	0
17	2036920	216.358347429	0
17	2037206	216.394737644	3
17	2038309	216.510061073	0
17	2039905	216.643047099	0
17	2043111	216.893576028	2
17	2045442	217.065506169	0
17	2047185	217.179612206	1
17	2047989	217.233988206	0
17	2048457	217.27450751	0
17	2048885	217.309665672	3
17	2050223	217.419215162	0
17	2050532	217.468565671	0
17	2051693	217.667508235	1
17	2052178	217.745902219	0
17	2056790	218.191231026	0
17	2056874	218.196072029	0
17	2056929	218.205470303	1
17	2057441	218.302241955	0
17	2058575	218.471072125	0
17	2058681	218.482292958	0
17	2059974	218.615507952	1
17	2060856	218.68298999	0
17	2061774	218.761154328	0
17	2062279	218.808447357	0
17	2062865	218.854892271	0
17	2063411	218.901643046	0
17	2065114	219.028688286	0
17	2067109	219.166560978	2
17	2070682	219.382579355	0
17	2074192	219.643546345	0
17	2075540	219.78663785	4
17	2075655	219.796028919	5
17	2077029	219.910411515	0
17	2078247	220.002663395	0
17	2079884	220.110531792	0
17	2080230	220.133134554	0
17	2082317	220.235706753	0
17	2085511	220.441135079	0
17	2086563	220.519221546	0
17	2087204	220.576635788	0
17	2087227	220.579025901	0
17	2087569	220.615811372	0
17	2088763	220.722941689	0
17	2090836	220.987600004	1
17	2091523	221.070536126	0
17	2093263	221.25168512	0
17	2093476	221.271583812	0
17	2094209	221.339961684	2
17	2094354	221.351603513	3
17	2095595	221.465803079	4
17	2096932	221.573075699	0
17	2097505	221.619267793	0
17	2098272	221.689085325	1
17	2099511	221.798949324	1
17	2101699	221.965885434	2
17	2101855	221.981544323	0
17	2102455	222.031113075	0
17	2103375	222.114459956	1
17	2104187	222.18836878	0
17	2104868	222.26062413	0
17	2105108	222.283696786	0
17	2106052	222.366173564	2
17	2106173	222.370373077	5
17	2106214	222.370561339	0
17	2108797	222.601658506	0
17	2108866	222.610375322	0
17	2110460	222.768694252	0
17	2111771	222.890698321	0
17	2114546	223.092513993	0
17	2114766	223.102168734	8
17	2115097	223.118467665	0
17	2115298	223.131994429	0
17	2117991	223.29709828	0
17	2118558	223.341058777	0
17	2122354	223.625720257	0
17	2124291	223.82323313	1
17	2124319	223.825289455	0
17	2125841	223.96894175	0
17	2126922	224.078636467	0
17	2128752	224.273631547	0
17	2129221	224.317829848	0
17	2129466	224.329387563	0
17	2130624	224.429896651	0
17	2132859	224.626909243	1
17	2134686	224.77070072	0
17	2135471	224.827578811	0
17	2136252	224.8772877	1
17	2138364	225.014320018	2
17	2139383	225.075076551	0
17	2144046	225.448229081	0
17	2145092	225.541263165	0
17	2145736	225.599372384	2
17	2146337	225.651526815	2
17	2146727	225.689905319	1
17	2148749	225.863048884	0
17	2149502	225.947097817	0
17	2150705	226.066720568	0
17	2151158	226.101934797	2
17	2154016	226.329791841	0
17	2157110	226.613627537	0
17	2158490	226.791789421	1
17	2158648	226.811588141	0
17	2160030	226.981015905	0
17	2163567	227.329247616	0
17	2165154	227.455783263	0
17	2165332	227.473042239	1
17	2165697	227.507414775	0
17	2165742	227.513214329	0
17	2166273	227.565988214	0
17	2167842	227.696886619	0
17	2173223	228.219216674	0
17	2173749	228.281278923	2
17	2173982	228.303624257	0
17	2175655	228.435664919	0
17	2177097	228.55690491	0
17	2178401	228.66648647	1
17	2179790	228.800555305	0
17	2179923	228.812278896	3
17	2181371	228.927115138	1
17	2181586	228.947402765	0
17	2182767	229.063631416	0
17	2184591	229.22961024	0
17	2185199	229.276662736	1
17	2186098	229.361690403	0
17	2186235	229.378243171	1
17	2186445	229.395981433	2
17	2189679	229.710104961	0
17	2190946	229.858639348	0
17	2191416	229.909284404	0
17	2192670	230.053076235	0
17	2193125	230.106325969	1
17	2196165	230.356356231	3
17	2199023	230.517473398	3
17	2199495	230.549592103	4
17	2201006	230.640083014	0
17	2201089	230.64507415	0
17	2202606	230.733609527	0
17	2204667	230.869659057	0
17	2206734	230.989242846	0
17	2208494	231.105200911	0
17	2214497	231.550290951	0
17	2214716	231.564131018	0
17	2217535	231.784356645	0
17	2220398	232.001054815	0
17	2220882	232.044817441	0
17	2224187	232.378209963	0
17	2228145	232.729059067	0
17	2230048	232.880001236	0
17	2230343	232.906393826	0
17	2231129	232.97179176	0
17	2235420	233.270065782	0
17	2237013	233.397488724	0
17	2238498	233.511303718	0
17	2239567	233.586827295	1
17	2239735	233.596357432	0
17	2241407	233.726687544	2
17	2242865	233.839536272	0
17	2248572	234.168362122	0
17	2250288	234.296207412	0
17	2250509	234.31526465	0
17	2251536	234.39349287	0
17	2253934	234.634639308	0
17	2254160	234.650262255	1
17	2257367	234.876724157	1
17	2260430	235.063243042	0
17	2261789	235.144982398	3
17	2263834	235.296337788	1
17	2265178	235.470421798	0
17	2265543	235.520451915	0
17	2265879	235.560903422	0
17	2265961	235.572359262	0
17	2267287	235.720848935	0
17	2269529	235.903302173	0
17	2269753	235.923497529	0
17	2273934	236.267316201	4
17	2274466	236.310090598	0
17	2274822	236.33669961	3
17	2275070	236.358216143	3
17	2276689	236.483902297	0
17	2276756	236.492932377	0
17	2279567	236.674732217	0
17	2281778	236.850925338	0
17	2283096	236.96903274	3
17	2284004	237.064952227	0
17	2287752	237.456610745	0
17	2288649	237.542168355	0
17	2291597	237.841124444	0
17	2292902	237.93752312	0
17	2293686	238.006054031	0
17	2294301	238.063346581	1
17	2294969	238.123651722	0
17	2297387	238.36996105	2
17	2297561	238.389925155	0
17	2297628	238.396935672	0
17	2299408	238.528084521	1
17	2301453	238.697178398	0
17	2301844	238.731683817	1
17	2302472	238.779413561	0
17	2302481	238.780439031	0
17	2302578	238.786827541	0
17	2303215	238.826221533	0
17	2303540	238.846350538	0
17	2304010	238.874009321	0
17	2305459	238.963170907	0
17	2308001	239.140025038	2
17	2308184	239.151960938	0
17	2308999	239.212086679	0
17	2311442	239.425961809	0
17	2311929	239.471851079	0
17	2311955	239.475216717	0
17	2314570	239.766174436	0
17	2316353	239.917448695	0
17	2317737	240.058869396	0
17	2319030	240.216241197	0
17	2319183	240.241901842	2
17	2320637	240.428358497	0
17	2321747	240.598514134	0
17	2322212	240.669925903	3
17	2322258	240.678326845	0
17	2325195	241.02117387	0
17	2325700	241.082220974	0
17	2326019	241.122473163	0
17	2326604	241.183535158	0
17	2329280	241.40601695	1
17	2330037	241.46785214	0
17	2333669	241.767868381	1
17	2341103	242.441648868	0
17	2342528	242.591653738	0
17	2344948	242.774700295	0
17	2346515	242.875090241	0
17	2346721	242.888148214	0
17	2346809	242.895243419	0
17	2349228	243.114818434	0
17	2351903	243.373136043	7
17	2352125	243.391163208	0
17	2353039	243.45595559	0
17	2353451	243.489124624	0
17	2355301	243.631438715	1
17	2364062	244.157375526	0
17	2366008	244.283198491	0
17	2366258	244.295932677	0
17	2367357	244.354802408	1
17	2368348	244.422593723	0
17	2369499	244.516475007	3
17	2371039	244.647370784	0
17	2371563	244.704591513	0
17	2371691	244.718032931	7
17	2372961	244.838856719	1
17	2374318	244.951069748	5
17	2376775	245.146227732	1
17	2381068	245.478973843	1
17	2381458	245.510375776	0
17	2381635	245.524668544	0
17	2383341	245.661075596	1
17	2387508	246.052826666	0
17	2387893	246.106458154	1
17	2388363	246.159665529	1
17	2390775	246.411019299	1
17	2390930	246.422459883	3
17	2394301	246.748326117	0
17	2396093	246.938461303	0
17	2400446	247.209658876	0
17	2400541	247.215760929	0
17	2400954	247.242207947	3
17	2401183	247.256501366	0
17	2402520	247.345981504	0
17	2402980	247.371501664	0
17	2403049	247.377082368	0
17	2408494	247.793236287	0
17	2408528	247.796116252	0
17	2410088	247.922207649	0
17	2410095	247.922825049	0
17	2413292	248.221164209	0
17	2414265	248.364895727	0
17	2414545	248.422474271	5
17	2415734	248.569921981	0
17	2422506	249.244934139	0
17	2426479	249.581673831	0
17	2426789	249.605765345	0
17	2430193	249.844265458	0
17	2430805	249.901905816	0
17	2433804	250.175977389	0
17	2434483	250.241807038	0
17	2435033	250.300016326	0
17	2435501	250.344957352	0
17	2437650	250.522944458	0
17	2437942	250.548990503	0
17	2440757	250.759015112	3
17	2444942	251.101641168	0
17	2447830	251.361898373	3
17	2452847	251.841217802	0
17	2452860	251.84209563	1
17	2453487	251.882501174	2
17	2459110	252.276776307	1
17	2459213	252.282736424	0
17	2462541	252.476421048	0
17	2462860	252.493603056	1
17	2465435	252.646034742	0
17	2467866	252.774136734	0
17	2471758	253.044289104	0
17	2471906	253.056842711	0
17	2479061	253.626222765	3
17	2479443	253.653588992	0
17	2480765	253.753878303	2
17	2481297	253.781303139	0
17	2481584	253.800418166	2
17	2489650	254.312488115	0
17	2490443	254.380012155	5
17	2493512	254.58473423	0
17	2496387	254.844640951	0
17	2497885	254.968890617	1
17	2500724	255.241681452	0
17	2501091	255.276744067	0
17	2501362	255.310266845	0
17	2502687	255.465904808	0
17	2502931	255.49094315	0
17	2505989	255.826185351	2
17	2507487	255.9885984	1
17	2510418	256.288739367	0
17	2516972	256.8780533	0
17	2517925	256.956327739	4
17	2521263	257.224136242	1
17	2521367	257.234467115	0
17	2530657	258.225869235	2
17	2530815	258.256458553	1
17	2534321	258.661216919	1
17	2540120	259.257157646	0
17	2544083	259.58911154	6
17	2544226	259.59487691	1
17	2545019	259.666070942	2
17	2557642	260.646801381	0
17	2560819	260.932051136	0
17	2565062	261.264077121	0
17	2566832	261.389296962	0
17	2569269	261.541121802	1
17	2571733	261.684136816	0
17	2574178	261.837039912	0
17	2587186	262.696681577	0
17	2590243	262.966176416	4
17	2592980	263.184094613	0
17	2597405	263.600393675	2
17	2597741	263.624573101	1
17	2597936	263.638573337	0
17	2600084	263.819732328	0
17	2602223	263.964106738	0
17	2603272	264.032873905	0
17	2608228	264.446978274	0
17	2608244	264.448613319	0
17	2618527	265.188537558	0
17	2620009	265.285111053	0
17	2626978	265.696003844	0
17	2627786	265.75688619	0
17	2628493	265.82386218	0
17	2635868	266.538386848	3
17	2636482	266.589735569	0
17	2636667	266.603745947	0
17	2638070	266.742969201	0
17	2639638	266.886875314	0
17	2640393	266.942957755	0
17	2646702	267.409885312	2
17	2651369	267.725627146	0
17	2659516	268.326691608	0
17	2663550	268.642778734	1
17	2667014	268.844695564	0
17	2668694	268.94299733	1
17	2669543	268.999804003	0
17	2671706	269.123688035	0
17	2673989	269.278132335	0
17	2674189	269.289605988	1
17	2679243	269.598272094	2
17	2691500	270.311397894	0
17	2694467	270.460515926	3
17	2694703	270.47418841	2
17	2697780	270.608461525	0
17	2700962	270.785704136	1
17	2704601	271.054816031	2
17	2708754	271.389247846	2
17	2716602	271.94671372	2
17	2720967	272.286892431	1
17	2721062	272.296893997	2
17	2721174	272.307088085	0
17	2721348	272.324487744	0
17	2723609	272.529744591	3
17	2725290	272.653909828	0
17	2730823	273.215603594	0
17	2731547	273.306380993	0
17	2731626	273.322080444	1
17	2735122	273.612912577	1
17	2737415	273.832377139	0
17	2737903	273.878717171	1
17	2741431	274.096768922	0
17	2745547	274.402659835	0
17	2752599	275.037255218	1
17	2753241	275.082104612	0
17	2756573	275.343029869	0
17	2759600	275.560273339	0
17	2771627	276.721448816	3
17	2774721	276.98937591	1
17	2775566	277.053001233	8
17	2775948	277.077958857	0
17	2776276	277.091523258	1
17	2778416	277.254860417	0
17	2781449	277.485232626	1
17	2784554	277.807196177	0
17	2786799	278.092027754	1
17	2789037	278.27790665	0
17	2789492	278.31577135	2
17	2789896	278.343985136	4
17	2792340	278.545977728	0
17	2797023	278.894460224	0
17	2802156	279.442323573	0
17	2807110	280.034407398	0
17	2809860	280.36654116	1
17	2813052	280.706264514	0
17	2817653	281.268062507	0
17	2818244	281.321549728	0
17	2822630	281.760197592	2
17	2822881	281.780824007	0
17	2828099	282.393014542	0
17	2837819	283.194313986	1
17	2840807	283.444236424	4
17	2842869	283.573914653	0
17	2853740	284.558312643	0
17	2854209	284.599117576	0
17	2864423	285.517074561	0
17	2864485	285.524810706	0
17	2874013	286.252334137	0
17	2884219	286.903914106	2
17	2889177	287.36826956	0
17	2889788	287.408753446	3
17	2890658	287.471554052	0
17	2892875	287.634759855	0
17	2894996	287.787822233	6
17	2897314	287.953229305	0
17	2901012	288.218657622	0
17	2902898	288.373032551	0
17	2904045	288.443848498	0
17	2905528	288.573384508	1
17	2906375	288.65801139	0
17	2906442	288.664632946	0
17	2907800	288.828814339	2
17	2910422	289.18310801	1
17	2917325	289.730413401	2
17	2918983	289.850821236	1
17	2929087	290.45103427	0
17	2936227	291.026520401	0
17	2936489	291.059069283	0
17	2937887	291.159862997	2
17	2938496	291.212667011	0
17	2940676	291.391075068	0
17	2944603	291.654916794	0
17	2947440	291.879857635	0
17	2947729	291.917507675	0
17	2950760	292.153544954	0
17	2950911	292.165060414	0
17	2952332	292.265694473	0
17	2957804	292.67636501	0
17	2957819	292.677442755	1
17	2959378	292.816737926	0
17	2961141	293.004721328	5
17	2971288	293.755994051	0
17	2971523	293.774975478	0
17	2981872	294.685030848	0
17	2981922	294.694216482	0
17	2985985	295.29563956	1
17	2989032	295.658186922	0
17	2996578	296.422390015	0
17	3001099	296.914831324	0
17	3004813	297.316495691	0
17	3004889	297.323699797	4
17	3011074	297.668269909	1
17	3012942	297.790932226	2
17	3012987	297.79629818	0
17	3017104	298.094088101	0
17	3024339	298.693423413	0
17	3026057	298.81436355	0
17	3026161	298.820399614	5
17	3028000	298.917098559	1
17	3028182	298.927543585	1
17	3028825	298.964844311	0
17	3029003	298.972579184	0
17	3032268	299.164997631	3
17	3033390	299.234447132	1
17	3034006	299.266539397	0
17	3044616	300.107041699	4
17	3046504	300.273941343	0
17	3049239	300.44974616	0
17	3050917	300.553825959	1
17	3052193	300.652056247	0
17	3060631	301.11756928	0
17	3063794	301.351330607	0
17	3067015	301.609020956	0
17	3068748	301.783436203	0
17	3069370	301.851969764	0
17	3069533	301.862139352	8
17	3073590	302.122014008	0
17	3073912	302.146653412	0
17	3074077	302.156973229	0
17	3077723	302.396777857	0
17	3077959	302.40854084	0
17	3078169	302.419953612	2
17	3080648	302.58846362	0
17	3082088	302.683257186	0
17	3084349	302.892814576	0
17	3086251	303.067568403	4
17	3086561	303.091335241	0
17	3086923	303.124491802	0
17	3088503	303.286940196	0
17	3089457	303.377213549	0
17	3092561	303.599588843	0
17	3092834	303.620387192	0
17	3095521	303.841331862	0
17	3096148	303.887142764	0
17	3096185	303.889845149	0
17	3096298	303.898346359	0
17	3102540	304.387044675	0
17	3105075	304.622123085	0
17	3105650	304.67059338	0
17	3105710	304.679098825	0
17	3107199	304.821766255	2
17	3108748	304.926046512	1
17	3110131	305.014045718	0
17	3113404	305.211668853	0
17	3113413	305.212793706	0
17	3116949	305.412398128	0
17	3120272	305.64989087	0
17	3123102	305.924404593	0
17	3123853	305.98255947	1
17	3125725	306.134545721	3
17	3126204	306.172798949	0
17	3129822	306.460677071	1
17	3134999	306.801727141	0
17	3139919	307.151669341	3
17	3140100	307.163613942	0
17	3140251	307.170328197	0
17	3141430	307.249639429	2
17	3142194	307.300806535	2
17	3142909	307.34286238	3
17	3147394	307.722848262	0
17	3147615	307.751645366	0
17	3149135	307.911076552	3
17	3150244	307.988720471	0
17	3152407	308.14817032	0
17	3152423	308.149656187	0
17	3153652	308.259979093	2
17	3153918	308.282386418	0
17	3155297	308.40293644	1
17	3155763	308.450503703	2
17	3155839	308.455821765	1
17	3156062	308.474232027	0
17	3156365	308.495119948	0
17	3156897	308.535639416	2
17	3158483	308.625122267	0
17	3159421	308.685706898	0
17	3164128	308.933918843	0
17	3164753	308.982115588	0
17	3166210	309.090938415	0
17	3166897	309.152317657	1
17	3167515	309.196962236	0
17	3170308	309.422062739	1
17	3170509	309.436562164	0
17	3170796	309.458852013	0
17	3172847	309.643958162	0
17	3176710	309.973144674	0
17	3178065	310.091984223	1
17	3178537	310.124272988	0
17	3181843	310.452042334	1
17	3186998	310.838982902	3
17	3187331	310.863596256	1
17	3188251	310.921302349	0
17	3188327	310.928642853	0
17	3190515	311.109653339	0
17	3191338	311.176887001	0
17	3195316	311.495336356	0
17	3197608	311.65086211	0
17	3200265	311.863287326	0
17	3200303	311.866585883	1
17	3201000	311.924291748	0
17	3201632	311.979007083	0
17	3202696	312.091589073	0
17	3204071	312.231858783	0
17	3204086	312.233397701	0
17	3207140	312.545867817	1
17	3209164	312.745282499	1
17	3211799	312.931001943	0
17	3215966	313.17102342	0
17	3217673	313.299722683	1
17	3221013	313.558664452	0
17	3223188	313.708425027	0
17	3228827	314.215091582	0
17	3230351	314.375045224	0
17	3231046	314.441123598	0
17	3231212	314.46028594	0
17	3233649	314.647685349	0
17	3233719	314.651259415	0
17	3233947	314.663773262	0
17	3234944	314.743326209	0
17	3239077	315.091596176	0
17	3241052	315.245101444	0
17	3243563	315.451914873	0
17	3244711	315.549117748	1
17	3245630	315.627565379	0
17	3247301	315.799911943	0
17	3249366	316.012671548	0
17	3249411	316.017339026	1
17	3252624	316.257798201	0
17	3254259	316.394737644	0
17	3255899	316.547229803	3
17	3256620	316.624523736	3
17	3256917	316.643047099	0
17	3260806	316.92206287	2
17	3264409	317.065506169	0
17	3266506	317.179612206	1
17	3267986	317.27450751	2
17	3270510	317.468565671	0
17	3273471	317.667508235	0
17	3274732	317.745902219	0
17	3276873	317.919799534	3
17	3280376	318.196072029	0
17	3280441	318.205470303	0
17	3281781	318.302241955	0
17	3285872	318.559057714	1
17	3287962	318.68298999	0
17	3289138	318.761154328	0
17	3289689	318.808447357	0
17	3290330	318.854892271	0
17	3291007	318.901643046	0
17	3292726	319.028688286	2
17	3295123	319.166560978	0
17	3297002	319.296789615	4
17	3298454	319.382579355	1
17	3302846	319.643546345	0
17	3304512	319.78663785	0
17	3305642	319.875885292	1
17	3305762	319.882971147	3
17	3306497	319.910411515	0
17	3307822	320.002663395	0
17	3308024	320.020460154	1
17	3309967	320.110531792	0
17	3310389	320.133134554	0
17	3311905	320.235706753	0
17	3316290	320.576635788	4
17	3316359	320.579025901	0
17	3316954	320.615811372	3
17	3321226	320.987600004	0
17	3322006	321.070536126	0
17	3323723	321.271583812	0
17	3324392	321.339961684	0
17	3324504	321.351603513	0
17	3325428	321.393721171	4
17	3329162	321.573075699	0
17	3329289	321.575375206	4
17	3330173	321.619267793	0
17	3331536	321.689085325	0
17	3333628	321.786258673	2
17	3333964	321.798949324	0
17	3335308	321.852092161	3
17	3335682	321.87031616	2
17	3337515	321.965885434	0
17	3337826	321.981544323	0
17	3339843	322.114459956	0
17	3343469	322.356512844	1
17	3343645	322.366173564	0
17	3343679	322.370373077	0
17	3346775	322.601658506	1
17	3346904	322.610375322	0
17	3348014	322.67928792	0
17	3349360	322.768694252	4
17	3351629	322.890698321	0
17	3355318	323.102168734	0
17	3355552	323.118467665	0
17	3358144	323.29709828	0
17	3358997	323.341058777	0