version 2
run ChordDht-5-20211202-15:14:01-10332
attr Lifetime 600s
attr configname ChordDht
attr datetime 20211202-15:14:01
attr experiment ChordDht
attr inifile configs.ini
attr iterationvars $Lifetime=600s
attr iterationvars2 "$Lifetime=600s, $repetition=0"
attr measurement $Lifetime=600s
attr network oversim.underlay.simpleunderlay.SimpleUnderlayNetwork
attr processid 10332
attr repetition 0
attr replication #0
attr resultdir results
attr runnumber 5
attr seedset 5

vector 31  SimpleUnderlayNetwork.globalObserver.globalStatistics  "GlobalNodeList: Number of nodes"  ETV
vector 32  SimpleUnderlayNetwork.globalObserver.globalStatistics  "GlobalDhtTestMap: Number of stored DHT entries"  ETV
vector 33  SimpleUnderlayNetwork.globalObserver.globalStatistics  "LifetimeChurn: Session Time"  ETV
vector 34  SimpleUnderlayNetwork.globalObserver.globalStatistics  "LifetimeChurn: Time between creates"  ETV
vector 35  SimpleUnderlayNetwork.globalObserver.globalStatistics  "LifetimeChurn: Time between deletes"  ETV
31	468879	150	502
31	652618	200	507
31	810587	250	506
31	1021598	300	498
31	1178981	350	507
31	1372938	400	499
31	1557984	450	493
31	1737705	500	494
31	1930580	550	503
31	2088543	600	488
31	2275475	650	485
31	2441839	700	498
31	2616162	750	495
31	2784945	800	495
31	2949671	850	494
31	3128037	900	499
31	3293278	950	490
31	3464380	1000	488
31	3636623	1050	494
31	3807113	1100	505
32	468880	150	727
32	512146	160	807
32	560330	170	905
32	592387	180	969
32	624189	190	1024
32	652619	200	1104
32	684027	210	1192
32	710827	220	1284
32	740218	230	1361
32	770841	240	1437
32	810588	250	1499
32	854956	260	1580
32	900167	270	1663
32	943195	280	1746
32	989471	290	1827
32	1021599	300	1901
32	1051039	310	1984
32	1083133	320	2049
32	1114751	330	2131
32	1144489	340	2206
32	1178982	350	2280
32	1210570	360	2346
32	1249174	370	2357
32	1290403	380	2353
32	1333380	390	2336
32	1372939	400	2332
32	1422422	410	2334
32	1459168	420	2347
32	1490048	430	2341
32	1525250	440	2348
32	1557985	450	2331
32	1589424	460	2333
32	1623126	470	2316
32	1655590	480	2322
32	1697286	490	2338
32	1737706	500	2332
32	1778002	510	2323
32	1819078	520	2314
32	1862259	530	2316
32	1898123	540	2331
32	1930581	550	2327
32	1962955	560	2330
32	1994631	570	2334
32	2024035	580	2329
32	2056479	590	2307
32	2088544	600	2320
32	2124342	610	2308
32	2163904	620	2316
32	2201313	630	2323
32	2237033	640	2319
32	2275476	650	2315
32	2307810	660	2302
32	2341384	670	2306
32	2374024	680	2308
32	2406879	690	2302
32	2441840	700	2294
32	2475984	710	2285
32	2508057	720	2285
32	2544815	730	2293
32	2579846	740	2300
32	2616163	750	2307
32	2651832	760	2294
32	2691979	770	2303
32	2723086	780	2294
32	2755313	790	2299
32	2784946	800	2306
32	2819540	810	2305
32	2849810	820	2292
32	2882164	830	2290
32	2912780	840	2273
32	2949672	850	2300
32	2983109	860	2291
32	3019899	870	2279
32	3056102	880	2291
32	3096513	890	2310
32	3128038	900	2295
32	3163852	910	2298
32	3193915	920	2294
32	3230688	930	2298
32	3258725	940	2305
32	3293279	950	2302
32	3324306	960	2312
32	3356927	970	2296
32	3393383	980	2293
32	3429431	990	2300
32	3464381	1000	2313
32	3502120	1010	2314
32	3533110	1020	2313
32	3568016	1030	2314
32	3601680	1040	2297
32	3636624	1050	2304
32	3668271	1060	2316
32	3701244	1070	2297
32	3734519	1080	2325
32	3769572	1090	2318
32	3807114	1100	2306
32	3850515	1110	2304
32	3886962	1120	2312
32	3921926	1130	2320
32	3949646	1140	2306
33	470269	150.311310344	262.501542652
33	471344	150.572268301	1564.325718401
33	472261	150.755771787	1705.308534891
33	472756	150.870854586	3.333427785
33	479705	152.495136521	954.201098215
33	479990	152.560322503	1493.364431575
33	486846	154.217596078	255.986891092
33	492232	155.534909288	146.730648182
33	492882	155.684033826	1041.654010367
33	497572	156.815098522	82.99384842
33	502167	157.917259153	1844.459580982
33	508327	159.306142245	11.995609734
33	514711	160.562018837	52.473587383
33	522209	162.059788031	235.741353926
33	531015	163.730468432	1208.635264006
33	534322	164.58727411	987.905114009
33	534893	164.733534135	471.558848342
33	542214	166.401605493	678.129734128
33	542841	166.500740928	282.43022233
33	544505	166.81682983	386.032218244
33	552841	168.509133991	422.4745665
33	558420	169.535653152	191.797918155
33	570520	173.155847903	150.633492103
33	574990	174.701500634	141.355786205
33	577853	175.751625096	71.971763127
33	577899	175.768167695	481.563554467
33	578143	175.92339214	42.849645665
33	579280	176.458235494	307.569821095
33	580547	176.731476969	247.857922287
33	581256	176.918989319	2060.185262969
33	585064	177.755667275	1039.761400719
33	586805	178.123365454	636.156058445
33	586984	178.158841235	319.259987004
33	593218	180.245435715	1567.774560593
33	606137	184.677047648	279.514154406
33	611763	186.164440588	18.746085691
33	612506	186.335109417	127.66547858
33	612697	186.390404296	13.439319733
33	614280	186.8277769	1622.006802347
33	615743	187.312555119	389.365333635
33	622866	189.52881418	470.317632603
33	625604	190.397539114	921.165505966
33	629315	191.842818555	279.075996678
33	630953	192.59418947	788.306462949
33	632108	193.004537013	0.229783718
33	633132	193.364504274	392.807875239
33	634837	194.067565525	175.222194025
33	642314	196.644419539	2530.94061702
33	650966	199.399437017	587.418316975
33	653696	200.383413242	1163.161371707
33	663931	203.675262006	2614.063056558
33	665497	204.018545898	1760.942256917
33	666754	204.454114908	885.112197063
33	672134	206.173383959	1170.328732238
33	672413	206.25943735	617.653883163
33	676320	207.351023759	38.720109062
33	678106	207.916524542	139.901627361
33	680948	208.903978068	50.088790887
33	684259	210.075035462	222.603880707
33	691143	212.427350939	568.905726415
33	696785	214.583701303	14.31825484
33	697665	214.854764953	635.280505165
33	705545	218.059235241	619.159126348
33	706287	218.365264016	87.572276826
33	715392	221.611755632	6.812312367
33	716690	222.110032082	279.843513372
33	719650	223.144562225	726.030541178
33	720186	223.305389831	3.809244561
33	725147	224.999979218	564.774714941
33	728150	225.831820679	146.374017853
33	740478	230.113287328	1339.291852215
33	741000	230.29917359	347.069871626
33	741611	230.445470535	88.632101648
33	742649	230.725764085	2613.424474221
33	747229	232.13616598	316.941235511
33	752565	234.235422304	138.738248528
33	752629	234.257623092	1605.151203596
33	757145	235.812290932	26.680336279
33	757391	235.910459222	149.857145844
33	758574	236.284039312	28.532819436
33	766274	238.541642532	753.777306331
33	768206	239.390341796	233.962721844
33	770085	239.79055437	1559.397609058
33	772052	240.34301358	36.590052929
33	772366	240.453064004	273.959066265
33	778021	242.07828522	499.88566136
33	788748	245.150916431	248.697018865
33	792024	246.002527271	146.726827547
33	792795	246.188534091	100.966392296
33	793045	246.251107438	1040.006094858
33	798932	247.260482654	1849.601349531
33	802099	247.834310466	1775.239265559
33	811396	250.195567621	33.190882103
33	824887	253.312424387	1118.784911964
33	826940	253.738885226	1641.934384387
33	829819	254.400553954	1539.461297156
33	830833	254.625484303	126.001020631
33	832050	254.904996672	675.810674367
33	833454	255.165523022	349.059959726
33	839762	256.402201146	1011.484582389
33	851311	259.114258555	273.200654538
33	853249	259.633062505	776.3624232
33	857723	260.447631031	334.86095042
33	858754	260.654282429	76.083539358
33	861398	261.215345367	322.105542517
33	867606	262.486996202	438.880649691
33	879672	265.360325317	976.608147536
33	880628	265.624904795	14.823612799
33	880738	265.644327163	21.158994023
33	881163	265.76719061	16.699359523
33	883014	266.108281328	96.109725926
33	888605	267.023913761	583.340515056
33	890074	267.264797195	277.866985164
33	899101	269.662072127	16.520324794
33	937298	278.626131728	35.660042738
33	938939	279.038857512	924.426738867
33	939918	279.305874506	260.463923206
33	942218	279.783994299	540.643958832
33	945984	280.64330589	376.96177163
33	954425	282.438606638	1888.646102543
33	960889	284.005141502	206.54766799
33	968767	285.830351431	1647.422819775
33	969914	286.123700307	1275.197237899
33	975502	287.106372993	554.332264262
33	979456	288.108951375	1051.13425312
33	993137	290.917679502	254.148552588
33	996003	291.829241857	190.693737038
33	1007231	295.932003914	125.768181305
33	1012759	297.804020765	722.384496013
33	1013191	297.910583161	823.298450619
33	1022105	300.208063629	28.471033266
33	1023492	300.699131716	1008.342803199
33	1024108	300.955413791	149.311860782
33	1024400	301.074192319	114.952846464
33	1033259	303.773685525	961.268625697
33	1037511	305.401874708	1479.164556763
33	1045805	308.119579833	117.447284782
33	1047941	308.990208237	605.982256132
33	1048215	309.110300445	507.744353267
33	1050247	309.680750234	1606.557441302
33	1054547	310.988698219	254.814582813
33	1057227	311.639436794	583.268760854
33	1059881	312.301691926	871.224288595
33	1060791	312.693027889	36.095756301
33	1066446	314.449495483	393.759868192
33	1067097	314.71019097	595.644472551
33	1069048	315.429251165	84.298613281
33	1074749	317.26248259	1484.333819694
33	1079391	318.755957956	691.649939482
33	1080005	318.909017272	266.96350063
33	1082445	319.710924989	615.437016327
33	1083510	320.132126715	1468.330084679
33	1083739	320.205835116	503.560074387
33	1087086	321.176479135	110.052648033
33	1089889	321.877053465	114.3590739
33	1093886	322.748895946	18.312346964
33	1106094	326.84715031	292.672544
33	1112649	329.174357718	1151.894131107
33	1119829	331.758438747	148.361371151
33	1122182	332.760719061	135.653373245
33	1126024	334.084032882	1.989561005
33	1129052	335.000685005	448.581747454
33	1133077	336.228020533	224.269383865
33	1134963	336.922401198	87.796149897
33	1136367	337.477053647	127.884397779
33	1137692	338.029335482	146.762273005
33	1139858	338.747837304	276.853917951
33	1146123	340.550657112	427.95086575
33	1147212	340.939457208	918.510426707
33	1149921	341.861232609	186.793924368
33	1154259	343.494380555	714.692861884
33	1155381	343.932421668	314.563022712
33	1158251	344.552673855	104.486604336
33	1159758	344.989080065	1064.850238177
33	1161631	345.581529972	387.00285083
33	1163331	346.210366387	1134.196990459
33	1166679	347.088952793	257.714376996
33	1168382	347.548156243	120.663439106
33	1168719	347.648784007	436.28199179
33	1170948	348.301374394	37.179979928
33	1172718	348.829077663	154.397149941
33	1175270	349.200520197	1072.191516963
33	1179036	350.023345255	1408.870807026
33	1186288	351.808868225	864.518340971
33	1194974	354.694350554	820.802683709
33	1198653	356.075716271	836.806728016
33	1207735	358.953219206	716.669232128
33	1222235	363.511375629	2.094243826
33	1236300	367.004766276	404.520079275
33	1238945	367.515786628	2.78330258
33	1239187	367.564054404	423.691480559
33	1251702	370.613332158	950.567839774
33	1263375	373.569878339	31.350204086
33	1264707	373.939673944	241.143083134
33	1268178	374.797021542	62.514302218
33	1284867	378.445439497	645.334612427
33	1287647	379.214114069	485.743388455
33	1288222	379.416777766	2144.332026363
33	1288774	379.565052826	694.032720657
33	1292446	380.397892244	55.820445656
33	1302291	382.56157855	60.972483424
33	1308646	384.463400658	1062.483599063
33	1310146	384.824321795	142.30061095
33	1313795	385.457592493	2048.17163242
33	1319749	386.42359672	608.918484952
33	1331358	389.379902257	331.673420826
33	1331922	389.56195907	2025.65973308
33	1334726	390.343315758	78.390828273
33	1338799	391.389585822	243.490940553
33	1351859	395.016642738	142.628864493
33	1360873	397.105189822	681.852509693
33	1363102	397.527543633	231.623738425
33	1364465	397.921078069	169.80949074
33	1366725	398.49319804	145.519538202
33	1369910	399.303474842	851.825303668
33	1372216	399.790259227	1655.568356564
33	1376709	400.835682882	524.644140286
33	1379223	401.341918291	421.197368636
33	1383817	402.198658286	1213.792846887
33	1391625	404.102729658	2465.719872894
33	1392388	404.258911358	369.988055916
33	1411072	407.780151873	112.211336511
33	1414624	408.553962152	290.517321216
33	1415437	408.771373886	129.76505875
33	1416887	409.156798471	1949.016871647
33	1425792	410.616400494	1827.865125203
33	1434093	412.954634733	53.944460719
33	1441854	414.996723516	106.866889894
33	1442169	415.109227654	202.727455193
33	1443868	415.732359583	234.834460305
33	1444720	416.061467679	234.211709357
33	1457371	419.444855136	9.02422023
33	1461302	420.70754084	693.199075894
33	1461436	420.735265118	129.767109536
33	1462475	421.022625133	1195.234703269
33	1466292	422.271554224	364.452142586
33	1470713	424.308347271	151.357130332
33	1474546	425.680135553	545.876645804
33	1474813	425.805437173	1290.538571098
33	1480335	427.396074516	141.317390375
33	1483727	428.208681791	247.641478989
33	1484119	428.323537467	265.395375533
33	1485020	428.584695328	477.408617173
33	1491496	430.348043021	513.98400768
33	1494189	431.071084518	3356.529095697
33	1497453	432.126295047	170.063954581
33	1504856	434.270380164	518.718478367
33	1517042	437.925652385	1566.738651266
33	1519797	438.524033952	169.681354045
33	1529492	441.300149787	867.532662873
33	1537486	443.582016188	132.305390242
33	1539231	444.24535256	778.742471045
33	1543718	445.514614672	16.568181831
33	1550894	447.649268866	267.437106892
33	1555463	449.275467842	752.906392144
33	1555981	449.434735437	12.361292343
33	1566638	452.64569611	350.992604181
33	1567839	453.008814689	1062.855765494
33	1569941	453.582050993	139.569723869
33	1576452	455.880601854	102.871287451
33	1580535	457.350174774	188.307245277
33	1581549	457.812496934	917.644527647
33	1582304	458.145696163	1270.760701838
33	1587292	459.407750882	1377.959356238
33	1587856	459.597394464	222.887392242
33	1594650	461.280504837	1953.751679314
33	1599649	462.799946932	1916.046444538
33	1609949	465.638748045	225.491887661
33	1610085	465.679441165	428.430045918
33	1611222	466.14047389	355.799324976
33	1615174	467.155191848	633.83012522
33	1617632	468.010414804	25.902317769
33	1619322	468.661868111	507.58813536
33	1620435	469.120419696	1574.476593686
33	1627139	471.062128044	58.877026216
33	1627354	471.155432968	1401.34055345
33	1630671	472.482536597	465.370615211
33	1631624	472.817296709	178.242335603
33	1637505	474.923947628	16.540347322
33	1638430	475.275122049	1617.833077499
33	1640386	475.967616369	869.169851069
33	1641238	476.335602764	120.888333509
33	1644036	476.988122594	418.15606786
33	1646774	477.989651644	89.596270734
33	1646859	478.015388782	1717.20978464
33	1647131	478.115344144	482.551431015
33	1650910	478.860923749	720.733542534
33	1654883	479.865139613	2176.152661342
33	1658043	480.462646396	806.195938649
33	1658336	480.541633043	273.468441185
33	1659002	480.736783336	174.874874534
33	1660112	480.944347194	994.217546144
33	1670788	483.839754021	942.82683912
33	1672691	484.214360997	327.088680278
33	1678633	485.911668448	185.712726862
33	1689372	488.200684728	35.000171245
33	1694219	489.30488318	418.165880492
33	1696105	489.833898599	175.545858511
33	1697592	490.026026489	53.22119175
33	1720726	495.610863415	18.756543563
33	1725665	497.016398379	263.867722265
33	1725934	497.102788292	127.624759669
33	1738024	500.111879304	1229.660443002
33	1743237	501.251853993	210.881644356
33	1743593	501.321816096	357.248543821
33	1745335	501.73232605	172.998732733
33	1749597	502.732185248	1287.929836187
33	1758814	505.090733924	1784.036108378
33	1759189	505.171421817	1274.43551097
33	1760408	505.398726095	1270.611385302
33	1770679	507.728212693	317.216801522
33	1772410	508.321514121	13.611986958
33	1776588	509.523492931	352.783700349
33	1782383	511.025907966	421.110164695
33	1788753	512.22439109	420.103151146
33	1792275	513.243952602	70.183877102
33	1794651	513.914261142	1571.50583827
33	1797686	514.569997463	278.313030875
33	1799330	514.972081289	344.742263259
33	1800783	515.34360091	778.114927532
33	1807793	516.931712477	1589.126900959
33	1814251	518.650115327	855.213274546
33	1817497	519.494213428	823.218768249
33	1823674	521.055625993	223.219491906
33	1825705	521.463279088	291.206214658
33	1828709	522.246934657	64.478633517
33	1828826	522.287456065	323.242414092
33	1838156	524.590707722	250.567248751
33	1842799	525.819520565	728.987269878
33	1842897	525.836002567	1204.435100682
33	1842952	525.849569383	28.295567221
33	1848739	526.961155844	264.255356695
33	1854521	528.332633475	772.415023694
33	1855303	528.540293123	487.243014273
33	1859421	529.368836621	214.130719902
33	1861927	529.91214639	484.679421519
33	1865651	530.730226095	250.420376734
33	1867522	531.150100378	325.294926205
33	1891573	538.276888339	84.985114163
33	1894093	538.883078853	605.007815282
33	1897403	539.712948535	35.222222149
33	1911405	544.414452356	1993.385075208
33	1917550	546.196423712	1036.33982698
33	1919981	546.950749997	13.920087112
33	1923957	547.864682711	864.151781471
33	1933826	550.939821098	1719.386185043
33	1935172	551.350905685	390.839597813
33	1947240	555.53657727	219.57701121
33	1965134	560.66834855	2122.225348163
33	1974459	563.215903589	1723.653558356
33	1975682	563.702428316	516.767177766
33	1975965	563.843239144	30.749171493
33	1976203	563.94037465	210.608023118
33	1977917	564.617485812	242.885463243
33	1985341	566.762231404	164.337634455
33	1994599	569.985829717	1291.030022857
33	1998300	571.038553363	634.585057012
33	2000171	571.755252415	693.975165674
33	2007992	574.67312231	36.884788685
33	2008307	574.79219677	1903.771856274
33	2008644	574.963519203	505.427960161
33	2010326	575.587155643	155.124398769
33	2014561	577.067910933	373.968469757
33	2015282	577.337588146	422.374008997
33	2019082	578.549700043	379.331389363
33	2019670	578.695544559	132.308625512
33	2020722	579.037264733	330.162835723
33	2026195	580.721360894	629.47510226
33	2032256	582.2179685	2623.516710179
33	2034024	582.767851496	94.561437955
33	2034374	582.887068052	919.133607537
33	2039583	584.866327286	361.346758864
33	2041652	585.637596201	639.299384882
33	2046231	586.750295337	1223.629362463
33	2060798	591.206531988	17.851950559
33	2067850	593.519234075	1165.923909046
33	2069884	593.978461694	161.697608751
33	2072268	594.800918923	3160.524095547
33	2082025	597.654220412	340.102132987
33	2091176	600.800164614	226.595346448
33	2095567	601.789548422	234.464347958
33	2096062	601.942906721	274.187974707
33	2099159	602.71807396	418.382360689
33	2117366	607.793351748	881.6299729
33	2129814	611.312026225	431.817334048
33	2132853	612.133332463	1370.395623263
33	2140193	614.167202868	399.039414864
33	2142907	614.812958096	377.289980993
33	2145685	615.394262949	58.221303818
33	2154006	617.308879607	84.240367349
33	2160444	618.831575531	406.053293254
33	2163055	619.796710477	884.076826159
33	2165108	620.419839129	115.870762074
33	2169265	621.337270809	315.930428863
33	2176157	622.939063616	33.132171246
33	2183335	625.25470097	475.536959361
33	2193596	627.417373802	651.687400799
33	2194599	627.760000571	1066.510144031
33	2200207	629.576171039	144.082588623
33	2202195	630.358300754	251.390551986
33	2210269	632.906722297	61.970545468
33	2215328	634.123052088	300.532966029
33	2217569	634.668463115	786.301461633
33	2218329	634.986057675	57.423640474
33	2234631	639.308185641	189.935235177
33	2235403	639.457364406	631.855337876
33	2235977	639.593944799	632.23203515
33	2243565	641.527603975	901.693359892
33	2248245	642.813772775	778.11584782
33	2248791	642.968127364	416.070566133
33	2255244	644.671653587	99.616087914
33	2259809	645.922623947	171.666849594
33	2270321	648.780293972	155.293722397
33	2280594	651.275790044	374.37025912
33	2281664	651.500795171	482.028290585
33	2282425	651.7010334	108.655503406
33	2284077	652.077425395	1659.039389293
33	2284265	652.112827564	760.604159234
33	2284495	652.159935369	249.912948753
33	2291824	654.31073699	1603.007943086
33	2291862	654.327447275	4082.58458485
33	2294806	655.451348327	1245.499658269
33	2310772	661.064573812	13.975480932
33	2311878	661.314629096	2430.313456688
33	2315393	662.253291087	243.126448073
33	2316164	662.438895859	555.833749482
33	2316852	662.64946138	1016.23874955
33	2319775	663.673528836	177.008557608
33	2325396	665.097715256	272.075444764
33	2331496	667.015838432	2003.180996553
33	2333563	667.658613372	807.657194717
33	2336997	668.716148907	912.741739085
33	2337932	668.984894689	152.479113223
33	2338287	669.088661824	575.364454309
33	2345016	671.256587543	52.024306419
33	2345413	671.382267663	1368.135931283
33	2346507	671.748802573	351.624604183
33	2353617	674.103704192	294.923961008
33	2353988	674.217335432	205.856289168
33	2354147	674.269020907	279.843682858
33	2354380	674.375438347	265.769730211
33	2366000	677.965410016	357.029508085
33	2366671	678.173791329	563.300182919
33	2368357	678.437834351	332.803631531
33	2371711	679.273928795	1098.256857435
33	2372964	679.649354428	1300.994932415
33	2380232	681.92193353	1258.937094592
33	2382717	682.629813157	129.141334512
33	2382783	682.651576461	588.11333814
33	2383185	682.7705047	616.440834289
33	2388919	684.530472252	907.603201954
33	2389391	684.764218519	448.356426586
33	2389566	684.835248809	191.83067403
33	2390957	685.342072888	1363.876976978
33	2391624	685.503769141	470.958080353
33	2392524	685.786193906	699.224022795
33	2401008	688.111568016	98.724372469
33	2407170	690.125127073	1325.199146632
33	2411817	691.334312881	21.815889012
33	2428733	696.630491799	40.353482666
33	2432783	697.827739102	713.843292732
33	2433102	697.892415177	48.354526481
33	2436254	698.777746189	1626.723832967
33	2436589	698.836077851	512.60239781
33	2439571	699.623372267	630.039545401
33	2440056	699.683618923	658.481505143
33	2445245	700.999969027	188.968325872
33	2453301	703.439826473	446.293397648
33	2453506	703.509659116	858.671719607
33	2458551	705.023786618	209.438592421
33	2460679	705.536744813	527.932730774
33	2467210	707.510976366	34.780004819
33	2473922	709.40921073	1278.634052246
33	2475636	709.874225563	973.20055978
33	2476499	710.152228683	82.134189536
33	2482193	711.469511694	11.489514383
33	2482711	711.577864386	132.386600703
33	2491429	714.464371779	1078.921968782
33	2494800	715.652111366	125.863109071
33	2497887	716.512277198	415.585365895
33	2505484	719.117612526	180.593224518
33	2505908	719.240967586	103.988166163
33	2508463	720.094955851	640.937393007
33	2511077	720.906563669	1047.477735579
33	2517102	722.68086177	173.157126675
33	2526458	725.052847576	1006.53540018
33	2527460	725.335988728	582.916910645
33	2528001	725.467853856	189.66143674
33	2539552	728.57882555	1272.769235526
33	2539623	728.600653457	188.150347928
33	2541742	729.213567222	386.809058825
33	2559569	734.1963274	133.585822608
33	2560542	734.476802657	494.014971824
33	2560720	734.535292478	1262.783152348
33	2567148	736.380928113	1252.877108167
33	2568860	736.810670571	592.698682102
33	2581900	740.61054176	62.75955027
33	2590244	742.718060073	98.019604423
33	2591388	743.190174293	391.573962046
33	2598042	745.39111454	267.22197716
33	2607914	747.805768682	651.362580351
33	2609720	748.387986016	970.082699205
33	2610457	748.556628539	1633.387556085
33	2611889	748.966398877	229.37845638
33	2614031	749.516890773	3075.943826199
33	2615884	749.909008107	950.843805811
33	2619414	750.875015559	692.21492503
33	2620126	751.097815686	50.412227321
33	2622257	751.673530953	48.280125515
33	2625451	752.542277079	531.576118671
33	2627682	753.157085381	500.033424353
33	2627747	753.175176577	97.876908933
33	2635800	755.519946282	1918.881925526
33	2639910	756.534932901	241.377794706
33	2642029	757.069775271	618.004516486
33	2645281	757.992129722	814.86629233
33	2650835	759.5966445	48.380516817
33	2658041	761.460085098	128.321940482
33	2662349	762.399484854	170.75784682
33	2669400	764.154299767	202.566389806
33	2673522	765.218515964	220.652805196
33	2679028	766.677569293	1500.99263169
33	2680300	767.061487443	1452.97009403
33	2680621	767.154822777	157.51152387
33	2680732	767.197354662	99.491250627
33	2681275	767.360243326	296.436369849
33	2690421	769.555559549	233.858219842
33	2692856	770.322967489	1625.251186736
33	2693170	770.401292224	591.821229653
33	2694278	770.718728454	686.141134889
33	2706455	774.164766941	496.156996884
33	2711030	776.139486145	153.299349661
33	2712995	776.839013821	330.831922955
33	2715380	777.655966768	400.455391602
33	2718431	778.716071316	1114.561214568
33	2738387	784.956003998	384.137215806
33	2747623	787.642620138	139.195032743
33	2747865	787.707688816	581.335889199
33	2754216	789.568922723	650.389724949
33	2756235	790.336878092	278.415384874
33	2756997	790.598396309	969.248417175
33	2767148	794.131290729	350.593935339
33	2767655	794.402238788	713.345899823
33	2767832	794.467236746	111.576096566
33	2768123	794.592182614	1458.270249513
33	2768860	794.894593378	910.939879622
33	2769158	795.044953529	293.329752782
33	2772462	796.101726659	691.043030393
33	2776595	797.365175907	71.697539556
33	2776917	797.485071445	439.862702198
33	2783192	799.417637883	284.00037985
33	2795929	802.937666036	342.429264504
33	2796631	803.18508398	2.49207707
33	2801780	804.279637633	48.082083906
33	2802406	804.537267681	465.951080495
33	2803992	805.111931346	100.980860533
33	2804500	805.288604295	135.707342369
33	2805956	805.66791947	3221.314609223
33	2809668	806.627329617	763.356614565
33	2822821	811.168338964	639.415798966
33	2823585	811.552043959	1028.409867185
33	2823832	811.645756468	709.230154167
33	2827036	812.916618752	79.77279503
33	2827983	813.230001619	147.182127129
33	2830784	814.53679503	440.843813543
33	2831938	815.06806512	1155.55872796
33	2834233	815.50394242	2475.012079736
33	2837886	816.449636749	1417.327462196
33	2840962	817.367599713	298.737569264
33	2848355	819.460928199	222.332320476
33	2857897	822.628297742	691.135282927
33	2858860	823.18504414	494.991754812
33	2858918	823.220600463	356.074886823
33	2860806	823.836287984	1868.124654667
33	2875818	827.810732021	398.429048612
33	2876435	828.091210687	158.52257061
33	2876718	828.223851493	154.749055504
33	2878614	828.925708424	1736.492368824
33	2878813	828.972448392	486.264417007
33	2879941	829.317432056	89.052512361
33	2880103	829.360713651	218.445547457
33	2894212	834.123460566	186.611296297
33	2901224	836.326789592	1098.364057017
33	2903032	836.918096077	991.520524485
33	2907725	838.662565761	52.12695756
33	2911789	839.772463042	549.668245758
33	2912474	839.95235644	168.833927894
33	2927505	843.781152286	1946.09671377
33	2945668	848.903015991	49.836688184
33	2949087	849.887360226	139.583937191
33	2949558	849.982099636	15.891088464
33	2952522	850.680729613	928.356901296
33	2957594	852.21557146	354.693188562
33	2958291	852.463965953	158.124575249
33	2964312	854.224219842	1504.889086523
33	2968734	855.444788511	811.334505851
33	2977942	858.201704929	286.396398873
33	2979946	858.836041876	1182.027307479
33	2981128	859.26691912	1713.951579
33	2982935	859.954272937	1209.50138829
33	2984683	860.466310923	42.318172741
33	2987898	861.258479483	10.856629471
33	2992216	862.08434349	803.440895547
33	2993892	862.582274782	104.562476104
33	2994902	862.935347195	1168.153544037
33	2998094	864.034682856	905.792280956
33	2999755	864.625870476	855.58830251
33	3003526	865.864694044	221.65495323
33	3006977	866.611484139	1832.786576232
33	3007863	866.78481258	115.375059798
33	3008486	866.906074589	649.338526157
33	3022374	870.80097242	138.410603791
33	3027288	872.078558436	321.444166488
33	3028133	872.314524834	61.048031408
33	3033720	873.863021354	1092.541214511
33	3039212	875.406897213	251.867467761
33	3041372	875.944605037	552.494751948
33	3047699	877.407621441	146.934076821
33	3054048	879.234536784	304.273319049
33	3055363	879.684981662	437.718183673
33	3055488	879.738077043	1148.800388824
33	3055521	879.747235078	2701.410585385
33	3064542	882.039531417	322.421534763
33	3074042	884.323383616	428.16569955
33	3077604	885.343146648	934.69794879
33	3077710	885.370121126	54.373541423
33	3080212	886.132293541	30.263876136
33	3083005	886.821526662	57.445415055
33	3084611	887.215655632	1257.379821182
33	3102438	891.72234593	943.461975767
33	3103713	892.135166566	94.32649467
33	3105864	892.766043425	1028.640678092
33	3108660	893.591238913	359.645317851
33	3111997	894.842373055	168.37583983
33	3114589	895.57001533	231.404185065
33	3118069	896.802765874	257.759630611
33	3122550	898.400539758	5.057928921
33	3129240	900.295797585	1909.147279201
33	3132302	901.363201819	463.723222637
33	3132580	901.460928907	187.34674675
33	3132625	901.471027585	179.395359834
33	3140287	903.3123397	72.797862328
33	3140996	903.605336419	351.722516674
33	3142113	903.961835237	35.977443621
33	3146617	905.415000856	2819.20329271
33	3161737	909.361339465	247.973784381
33	3163068	909.714542925	93.982809172
33	3174780	913.859818063	180.462504026
33	3175543	914.147683064	52.882483026
33	3184663	916.97640616	732.181469024
33	3185615	917.302127046	103.406005596
33	3190130	918.603941948	2321.889425043
33	3190980	918.827470038	811.058033358
33	3195470	920.508793451	173.832308233
33	3203789	922.867072705	1096.49348732
33	3206520	923.77778397	653.123224713
33	3206854	923.841943813	726.946301223
33	3208470	924.214968657	205.287224096
33	3210025	924.722609393	618.771742984
33	3211260	924.884036123	181.503788636
33	3216076	925.707429041	1083.100296846
33	3221075	927.116260602	486.617817227
33	3222331	927.602088618	24.245223831
33	3222357	927.606128413	808.198251777
33	3222374	927.606948977	186.008190446
33	3222751	927.771109916	3123.110289911
33	3226202	928.77845818	1207.04373623
33	3233175	930.865300588	576.89223413
33	3240889	933.997677435	185.133673958
33	3251263	937.556046354	317.68686735
33	3253809	938.429986838	31.008390377
33	3256078	939.117563121	1003.36180065
33	3259366	940.252987438	773.02039597
33	3264846	941.968501542	192.290304318
33	3265000	942.034516602	1036.162855792
33	3266581	942.356106219	190.028188444
33	3269192	943.346405914	826.417031032
33	3279091	945.874900086	193.098608323
33	3285300	947.762148172	1022.578801752
33	3285499	947.831049894	2508.324134274
33	3295399	950.711551072	271.663447374
33	3297929	951.61876666	58.005004094
33	3302228	953.319839196	2200.110101553
33	3307638	955.234644758	569.677285106
33	3312802	956.755202905	981.339096925
33	3313027	956.845798285	337.40881434
33	3313137	956.880578013	24.863599806
33	3318534	958.369833384	182.892468814
33	3322491	959.602735735	28.084924924