version 2
run ChordTest-1-20211108-20:50:07-9292
attr configname ChordTest
attr datetime 20211108-20:50:07
attr experiment ChordTest
attr inifile temp.ini
attr iterationvars ""
attr iterationvars2 $repetition=1
attr measurement ""
attr network oversim.underlay.simpleunderlay.SimpleUnderlayNetwork
attr processid 9292
attr repetition 1
attr replication #1
attr resultdir results
attr runnumber 1
attr seedset 1

vector 1  SimpleUnderlayNetwork.globalObserver.globalStatistics  "GlobalNodeList: Number of nodes"  ETV
1	10519	50	10
1	21096	100	10
1	32434	150	10
1	43006	200	10
1	54293	250	10
1	64916	300	10
1	75596	350	10
1	86826	400	10
1	97506	450	10
1	108736	500	10
1	119416	550	10
1	129989	600	10
1	141326	650	10
1	151898	700	10
1	163236	750	10
1	173808	800	10
1	185095	850	10
1	195718	900	10
1	206398	950	10
1	217628	1000	10
1	228308	1050	10
1	239538	1100	10
1	250218	1150	10
1	260791	1200	10
1	272128	1250	10
1	282700	1300	10
1	294038	1350	10
1	304610	1400	10
1	315897	1450	10
1	326520	1500	10
1	337200	1550	10
1	348430	1600	10
1	359110	1650	10
1	370340	1700	10
1	381020	1750	10
1	391593	1800	10
1	402930	1850	10
1	413502	1900	10
1	424840	1950	10
1	435412	2000	10
1	446699	2050	10
1	457322	2100	10
1	468002	2150	10
1	479232	2200	10
1	489912	2250	10
1	501142	2300	10
1	511822	2350	10
1	522395	2400	10
1	533732	2450	10
1	544304	2500	10
1	555642	2550	10
1	566214	2600	10
1	577501	2650	10
1	588124	2700	10
1	598804	2750	10
1	610034	2800	10
1	620714	2850	10
1	631944	2900	10
1	642624	2950	10
1	653197	3000	10
1	664534	3050	10
1	675106	3100	10
