version 2
run ChordDht-0-20211202-14:21:05-10332
attr Lifetime 100s
attr configname ChordDht
attr datetime 20211202-14:21:05
attr experiment ChordDht
attr inifile configs.ini
attr iterationvars $Lifetime=100s
attr iterationvars2 "$Lifetime=100s, $repetition=0"
attr measurement $Lifetime=100s
attr network oversim.underlay.simpleunderlay.SimpleUnderlayNetwork
attr processid 10332
attr repetition 0
attr replication #0
attr resultdir results
attr runnumber 0
attr seedset 0

vector 1  SimpleUnderlayNetwork.globalObserver.globalStatistics  "GlobalNodeList: Number of nodes"  ETV
vector 2  SimpleUnderlayNetwork.globalObserver.globalStatistics  "GlobalDhtTestMap: Number of stored DHT entries"  ETV
vector 3  SimpleUnderlayNetwork.globalObserver.globalStatistics  "LifetimeChurn: Session Time"  ETV
vector 4  SimpleUnderlayNetwork.globalObserver.globalStatistics  "LifetimeChurn: Time between creates"  ETV
vector 5  SimpleUnderlayNetwork.globalObserver.globalStatistics  "LifetimeChurn: Time between deletes"  ETV
1	396537	150	535
1	482525	200	549
1	559544	250	532
1	634522	300	556
1	703006	350	523
1	779583	400	556
1	852141	450	558
1	922400	500	550
1	991114	550	517
1	1056930	600	546
1	1116073	650	503
1	1178090	700	537
1	1236914	750	547
1	1288536	800	570
1	1336118	850	563
1	1386117	900	546
1	1434669	950	565
1	1478766	1000	552
1	1523518	1050	540
1	1564092	1100	550
2	396538	150	512
2	415949	160	564
2	434582	170	639
2	450516	180	684
2	467112	190	749
2	482526	200	816
2	498460	210	871
2	514270	220	930
2	529855	230	978
2	543793	240	1028
2	559545	250	1092
2	573957	260	1152
2	589623	270	1216
2	604947	280	1267
2	619287	290	1316
2	634523	300	1379
2	647917	310	1437
2	660919	320	1505
2	674717	330	1562
2	689132	340	1616
2	703007	350	1668
2	719140	360	1713
2	733958	370	1708
2	749153	380	1719
2	764149	390	1709
2	779584	400	1698
2	795279	410	1708
2	809405	420	1730
2	824669	430	1745
2	838398	440	1742
2	852142	450	1732
2	866242	460	1732
2	879830	470	1712
2	893344	480	1722
2	907610	490	1716
2	922401	500	1699
2	937424	510	1712
2	951887	520	1703
2	966754	530	1709
2	977924	540	1716
2	991115	550	1700
2	1003839	560	1696
2	1017147	570	1696
2	1031754	580	1693
2	1043943	590	1698
2	1056931	600	1684
2	1069442	610	1685
2	1081144	620	1667
2	1093190	630	1668
2	1105184	640	1673
2	1116074	650	1675
2	1128337	660	1676
2	1141002	670	1678
2	1152446	680	1666
2	1164013	690	1665
2	1178091	700	1673
2	1189684	710	1655
2	1202187	720	1658
2	1214344	730	1655
2	1225524	740	1661
2	1236915	750	1665
2	1248205	760	1670
2	1258151	770	1669
2	1268424	780	1678
2	1278954	790	1670
2	1288537	800	1677
2	1298573	810	1666
2	1308395	820	1679
2	1316806	830	1684
2	1326092	840	1687
2	1336119	850	1696
2	1345987	860	1703
2	1355562	870	1702
2	1366132	880	1712
2	1375702	890	1716
2	1386118	900	1725
2	1394862	910	1723
2	1405260	920	1736
2	1414938	930	1736
2	1424967	940	1733
2	1434670	950	1733
2	1444111	960	1746
2	1452388	970	1738
2	1460730	980	1747
2	1469838	990	1750
2	1478767	1000	1756
2	1486598	1010	1769
2	1496075	1020	1751
2	1505134	1030	1749
2	1514572	1040	1748
2	1523519	1050	1746
2	1531289	1060	1745
2	1539129	1070	1741
2	1547933	1080	1735
2	1556431	1090	1735
2	1564093	1100	1732
2	1572137	1110	1730
2	1581685	1120	1719
2	1591169	1130	1716
2	1600224	1140	1691
3	397057	150.256240832	33.407508305
3	397502	150.479137603	7.094420569
3	397684	150.590045043	407.612202133
3	397933	150.727268838	109.564987024
3	398079	150.801354048	3.070177301
3	398239	150.884171188	6.248905519
3	399072	151.267640657	24.658019074
3	399164	151.321375687	163.394098601
3	399573	151.566999227	3.639708988
3	399723	151.651793779	192.925083031
3	399761	151.661566035	55.17362084
3	399824	151.681529991	105.720719026
3	400240	151.898663114	20.5241051
3	400374	151.96209048	11.192425153
3	400441	151.989497276	94.600566651
3	401380	152.4174779	195.901412047
3	401554	152.516080158	90.160161789
3	402149	152.874843797	27.428416363
3	402190	152.883153137	16.773890979
3	402370	152.946888478	46.194132486
3	402669	153.086909932	15.273827039
3	402769	153.130094596	65.183821964
3	402811	153.142505859	18.266930399
3	402938	153.17033336	575.797169793
3	402970	153.176791119	10.783491222
3	403042	153.192070291	195.741839223
3	403499	153.367784371	11.106792705
3	403837	153.488943009	26.210696853
3	403989	153.561875233	179.780751302
3	404249	153.73535345	91.936484242
3	405017	154.188189889	47.786468938
3	405038	154.19048938	10.38176697
3	405109	154.212065042	11.491142979
3	406462	154.88411625	125.745165767
3	408644	155.782641335	10.763510815
3	409465	156.31308492	10.220801374
3	409595	156.380498611	112.049094136
3	410648	156.846352328	158.648823626
3	411065	157.090280097	52.555663603
3	411679	157.471238974	310.213057417
3	411823	157.514229229	79.95934652
3	412025	157.639045941	172.439188546
3	412076	157.665864885	40.717718053
3	412230	157.745266649	97.291458711
3	412473	157.901698732	24.929766132
3	412681	158.038787807	1.792843437
3	414214	158.747393173	233.292742563
3	414473	158.903970148	33.565225461
3	414502	158.91043744	6.216531326
3	414579	158.959675002	61.645432119
3	415134	159.351937714	65.404356251
3	415174	159.388631451	128.595442952
3	415495	159.709001267	9.067684415
3	415702	159.827254997	10.661170013
3	415845	159.930623409	10.897762919
3	416032	160.054486477	146.234322187
3	416153	160.13960783	210.679212587
3	416766	160.511370335	23.796121986
3	417540	160.917614311	31.127764201
3	418441	161.286381161	6.067430017
3	418465	161.289599704	112.282549369
3	418829	161.454693471	103.367913963
3	418904	161.484386648	6.442316126
3	419275	161.700178516	18.703875505
3	420544	162.524087584	77.58954939
3	420693	162.632998204	546.614856619
3	420871	162.749689962	44.190046705
3	420959	162.8139558	58.975593977
3	420997	162.848322098	96.597431186
3	421233	163.035554591	60.458121833
3	421429	163.110753662	83.906015061
3	422327	163.491424054	160.430824949
3	422592	163.630587506	141.032363023
3	423451	163.960796353	305.228165688
3	423711	164.092916511	15.1055033
3	424349	164.399027536	112.460094494
3	424768	164.614241385	69.047536363
3	425144	164.83934171	107.894809605
3	425652	165.169519108	25.568844455
3	426363	165.650076615	54.237969372
3	426432	165.685907563	14.72984471
3	426510	165.748262695	50.162440994
3	426591	165.793081713	26.302797368
3	426722	165.852684306	47.501489818
3	427002	166.022366921	309.985854152
3	427372	166.252907067	60.334510757
3	427433	166.280175128	82.508246498
3	428016	166.568107007	10.15120634
3	428252	166.694494976	12.498696506
3	428504	166.810583865	61.330580784
3	429065	167.042532441	167.735712305
3	429085	167.043573001	44.3334396
3	429158	167.074834034	24.612849771
3	429300	167.169540484	305.056922082
3	429870	167.500973967	76.284741671
3	430281	167.710040724	42.508699709
3	430665	167.897020601	26.171919001
3	430766	167.931288211	22.828527294
3	431347	168.140539859	52.476044407
3	432034	168.402773634	48.305302426
3	432520	168.719369607	9.691467759
3	432822	168.858011143	104.553673315
3	433292	169.14488973	144.932086863
3	433810	169.492813337	166.515472737
3	434330	169.811452013	42.170788718
3	434675	170.062876329	76.285655899
3	434971	170.254614496	38.929775568
3	435288	170.412116011	255.488078974
3	435534	170.570401543	232.543156774
3	435939	170.860702537	226.560953378
3	436219	170.994314256	72.28332517
3	436256	171.012664414	18.625125189
3	437241	171.57351211	142.116767576
3	437370	171.662959554	22.832379692
3	437614	171.831277616	1.720769314
3	437688	171.875329607	41.527764679
3	437780	171.906964382	32.864200604
3	438297	172.162161529	189.447664947
3	438522	172.277717074	13.645060175
3	438640	172.348469994	38.557326247
3	438655	172.35350144	65.337118213
3	438782	172.438303598	168.847782802
3	438797	172.438656639	66.986346586
3	438867	172.482990956	36.822548282
3	438956	172.536988481	178.179478618
3	438999	172.557300193	123.684226308
3	439387	172.839065379	5.29388675
3	439434	172.877859193	228.284521596
3	439816	173.119268977	407.686721828
3	440413	173.468057891	106.81667829
3	440839	173.755835254	131.797154659
3	441223	173.944715878	3.466470256
3	441401	174.016546546	130.822617828
3	441516	174.084862174	38.286716449
3	441781	174.217321594	216.00834535
3	442234	174.434507785	4.35506413
3	442404	174.527328513	47.043488471
3	442542	174.604432571	21.672448415
3	442604	174.640239677	6.792487356
3	442691	174.70176337	33.848806089
3	442884	174.789788358	65.359995779
3	443334	175.077711889	30.268758653
3	443686	175.260752491	43.434565594
3	444273	175.576886179	13.086293577
3	444328	175.599559877	111.651857355
3	444889	175.953218696	15.471761595
3	444953	175.993479983	49.26012592
3	445301	176.244835856	48.388049436
3	445525	176.423546289	369.097313779
3	446051	176.807192385	70.067104215
3	446185	176.949445899	218.760805199
3	446409	177.159780028	124.918004875
3	446474	177.206305624	7.921168067
3	446661	177.358228314	6.360835376
3	446842	177.458812979	29.020421904
3	446910	177.498256591	234.642107365
3	446970	177.519815511	90.161648944
3	447371	177.801599926	7.15162223
3	447394	177.808629388	256.079391476
3	447484	177.887369283	56.623550676
3	447616	177.991337943	177.76536404
3	447689	178.033420381	54.485712814
3	448469	178.429907442	32.111591785
3	448926	178.748600569	39.494429733
3	449066	178.843255263	86.672048101
3	449581	179.19092688	88.786141043
3	449892	179.539333101	124.343817877
3	450093	179.726272412	181.662628008
3	450281	179.829324756	35.005007678
3	450397	179.919933243	93.067355662
3	450830	180.208715196	135.284174776
3	451617	180.707729027	67.137749019
3	451668	180.7291385	199.121564049
3	451743	180.773960482	595.643369752
3	451889	180.869515973	67.570231576
3	452183	181.097236816	55.283837065
3	453030	181.562625829	80.339176266
3	453456	181.868386315	36.849791343
3	454576	182.562840536	31.582807309
3	454960	182.789147254	8.029745183
3	455421	183.03339822	459.133925382
3	455558	183.082213767	152.134336504
3	456224	183.473750014	14.897593181
3	456488	183.633011621	31.850888605
3	457192	184.027596197	122.613221223
3	457598	184.367525303	111.814676111
3	457762	184.458884938	88.369867505
3	457806	184.500644348	45.167117672
3	457839	184.518224523	88.709960908
3	458070	184.710818593	39.498039426
3	458087	184.711652042	357.288035482
3	458142	184.744882369	71.463418737
3	458302	184.840991811	55.480806657
3	458494	184.972956402	71.36475154
3	458963	185.184685689	148.32901983
3	459285	185.320497109	28.210775348
3	459704	185.596793239	123.305278344
3	459787	185.657054242	3.292589698
3	460175	185.921613566	22.264727832
3	460586	186.196854737	116.019213161
3	460617	186.214147334	18.865525163
3	460717	186.276669258	25.573902836
3	460914	186.423372536	2.891784883
3	460988	186.465709582	12.181146467
3	461372	186.719730175	2.541566841
3	461583	186.852079005	178.181961787
3	461696	186.901124685	218.733355088
3	461961	187.040447272	31.42145225
3	462213	187.141898968	10.66425652
3	462633	187.366904623	28.09526718
3	463258	187.673839276	93.73106112
3	463311	187.701162029	22.745222758
3	463539	187.84166619	19.592934393
3	463904	188.096309566	137.434301442
3	464003	188.145907984	39.216128962
3	464087	188.18737329	29.984349598
3	464104	188.189567206	59.858007713
3	464288	188.297920653	96.237505577
3	464403	188.362961391	206.385046635
3	465486	188.920601482	19.456207421
3	466115	189.32092043	138.135585111
3	466543	189.664867534	9.262424142
3	467055	189.980356317	86.559229984
3	467905	190.617615813	567.330644995
3	468882	191.378332953	125.964117062
3	469181	191.582528963	30.487916761
3	469208	191.619348049	448.729841123
3	469416	191.765234794	26.147303954
3	469486	191.825968903	4.452083204
3	469627	191.884034458	251.59781889
3	469832	191.961833418	21.574360841
3	470664	192.499402784	3.089900872
3	470907	192.635062284	58.231279684
3	471015	192.692772921	25.55278859
3	471153	192.775545684	132.679295762
3	471228	192.827998074	29.445667641
3	471284	192.847841668	1.66792728
3	471645	193.04282803	151.415416996
3	471810	193.128768407	74.792983721
3	472366	193.494089104	372.917929834
3	472766	193.694759657	344.122604021
3	473245	193.973631363	53.294321987
3	473332	194.016050446	21.779682792
3	473511	194.136635943	7.825577465
3	473562	194.179817659	58.015818664
3	473824	194.271721028	12.57645198
3	474306	194.551714926	120.558972096
3	474387	194.615658693	43.347510544
3	474759	194.845362634	378.14728683
3	475482	195.171852349	89.302688957
3	476213	195.413444069	6.715749707
3	476893	195.81777016	1.562413606
3	476956	195.871783703	257.616282422
3	476980	195.875707533	26.429758147
3	477354	196.142399211	121.752189908
3	477457	196.209299289	38.612429103
3	477612	196.300801753	54.977408267
3	477928	196.554104824	155.596977415
3	478160	196.692442431	596.631016839
3	478231	196.714117012	158.686629014
3	478640	196.912480216	46.015983246
3	478981	197.207406471	49.592797077
3	479053	197.261817004	72.230254696
3	479908	197.986879565	18.539127978
3	481065	198.780262767	254.811349483
3	481252	198.91659735	20.387126266
3	481494	199.129958477	154.904287308
3	481753	199.395694751	199.819033816
3	481824	199.463281159	14.415024091
3	482235	199.809171381	177.613140715
3	482395	199.914317546	420.001476637
3	482599	200.053820278	61.217443974
3	482785	200.180363335	286.604604793
3	483073	200.356175119	109.459869744
3	483347	200.528249692	29.876124866
3	483390	200.551038785	22.996611725
3	483437	200.585114308	23.012576815
3	483505	200.63671959	224.772309138
3	483847	201.040481868	47.159572045
3	484807	201.827841427	25.117873869
3	485053	201.956449601	72.798995684
3	485319	202.16614357	105.753726704
3	485948	202.502602195	127.219204265
3	486475	202.753810921	108.674035627
3	486609	202.79854453	65.053852005
3	486829	202.893887071	37.506194311
3	486856	202.909540731	79.218428781
3	487159	203.082417995	29.208032653
3	487174	203.083122626	3.235680464
3	487481	203.231536207	22.63468824
3	488626	203.899916046	98.666831104
3	488733	203.970214312	21.871709819
3	488827	204.037959117	51.674129502
3	489438	204.513519413	98.672296095
3	489744	204.827944355	67.020080293
3	489837	204.901167915	379.402378308
3	489872	204.913110053	24.485319064
3	489907	204.934398915	25.989001453
3	490142	205.138816589	19.417293719
3	490334	205.278280024	163.98244055
3	490360	205.28885036	53.871661121
3	490695	205.46143123	142.928634423
3	491417	205.95526435	176.656316126
3	491901	206.340355183	146.146662412
3	492606	206.981728265	165.320969899
3	492621	206.984353799	41.838076712
3	492636	206.987356989	102.894451741
3	493557	207.469342187	0.351068157
3	493662	207.534919486	306.996994666
3	493695	207.551723999	29.069842269
3	493767	207.598419614	74.431077296
3	493939	207.684615884	155.522510815
3	494821	208.121113919	89.763536876
3	495689	208.468570683	33.903782766
3	496255	208.687265639	29.317928921
3	496287	208.697472727	13.591949976
3	496809	209.080598531	6.592113054
3	496874	209.122444541	305.353925804
3	496951	209.156638585	302.592838752
3	497013	209.166386365	81.168363113
3	497378	209.325204234	279.123248191
3	497405	209.338632926	18.848900113
3	497502	209.379926222	52.445437122
3	497697	209.476527321	148.749984731
3	497936	209.679670113	191.041267544
3	498058	209.754303863	126.23338793
3	498167	209.839118535	59.322352908
3	498202	209.869251932	24.982946907
3	498432	209.987883409	3.365369133
3	498848	210.267047694	175.525647369
3	498874	210.276484421	149.458856469
3	499022	210.344479336	22.304745298
3	499165	210.421737918	346.375611374
3	499739	210.841784908	125.589348434
3	500541	211.581105214	105.187252518
3	500842	211.855870853	8.805354217
3	500936	211.924197491	14.995926548
3	501108	212.078500678	58.002327195
3	501241	212.189757145	25.366763174
3	501527	212.397176591	92.463881337
3	501701	212.490339853	15.705605674
3	501954	212.694684959	13.767165332
3	503048	213.387828132	48.042688252
3	503070	213.396000136	90.551972318
3	503145	213.435406514	228.961638242
3	503476	213.610974059	0.973050593
3	503716	213.653181297	125.645690891
3	504107	213.837642628	32.289957122
3	504977	214.384557714	32.995880372
3	505041	214.411787417	28.085985425
3	505288	214.518342707	101.82175788
3	505694	214.799063606	231.27153454
3	506024	214.967528194	18.282395352
3	507429	215.531261962	46.806319628
3	507791	215.808014876	33.31445279
3	509871	217.011391091	131.279179775
3	510076	217.098657519	80.879012627
3	510174	217.136829067	384.105031111
3	510657	217.485564225	7.53403102
3	510960	217.714521604	96.941113351
3	511083	217.801829173	60.897791444
3	511122	217.837342697	226.825679382
3	511140	217.847658012	30.551103409
3	511320	218.028240008	58.100865545
3	511519	218.136439524	17.976408817
3	512437	218.583102775	64.508827852
3	512720	218.770500141	161.972647958
3	512769	218.793502291	245.211688386
3	513072	219.023495475	488.349899034
3	513372	219.302519028	45.427586298
3	513759	219.691724315	43.110081246
3	514222	219.98331313	32.667645048
3	514295	220.019794561	88.203390262
3	514522	220.192833063	148.194127435
3	515133	220.597609447	7.984351759
3	515213	220.648905849	242.794267666
3	515852	221.048665455	103.660665323
3	516398	221.468015882	80.547479226
3	516522	221.555067288	166.509243194
3	516846	221.782998912	60.859674399
3	517733	222.32846503	110.210865066
3	517878	222.394973173	105.474510948
3	518388	222.635664618	4.903475959
3	518593	222.738227106	121.414784319
3	519345	223.213626052	87.609766481
3	519534	223.336011492	31.535488114
3	519660	223.427418541	203.905283267
3	519744	223.490557628	107.553322495
3	519848	223.565571568	100.570344778
3	520054	223.757909106	18.310499692
3	520411	224.03950269	28.961689681
3	520457	224.051467968	0.499650858
3	520689	224.202933502	8.297336511
3	520831	224.305734039	123.069900961
3	521103	224.475506665	43.200905495
3	521133	224.483948745	12.430282788
3	521194	224.517772054	19.820623405
3	521432	224.665074982	65.603186958
3	521447	224.666748288	182.344875164
3	521601	224.719643794	4.083977982
3	521700	224.765351716	278.533451627
3	521824	224.83415198	35.041611018
3	521960	224.897403359	25.172056668
3	522297	225.091155747	4.122157635
3	522387	225.136172903	21.150143302
3	522526	225.231409269	8.365850373
3	522557	225.248820225	29.925480933
3	522799	225.366401733	95.305342617
3	522945	225.47586897	104.849221751
3	523577	226.164100929	10.226645535
3	523720	226.305828923	54.865929903
3	523903	226.513396146	18.718418618
3	523923	226.516177957	34.283972586
3	524049	226.665564707	39.642973255
3	524088	226.694242997	38.616055674
3	524159	226.748019169	178.16570177
3	524284	226.805392654	9.731261699
3	524641	226.948723767	8.192307131
3	525165	227.135331932	114.161552352
3	525504	227.265682575	125.460032864
3	526222	227.749529597	80.706437454
3	526263	227.762115007	90.745411891
3	526355	227.825063939	72.449975036
3	526784	228.107366386	16.237801405
3	527714	228.565952255	209.054648905
3	528470	229.045312434	150.932698712
3	528731	229.156530082	115.665406634
3	529096	229.387468923	101.359292703
3	529183	229.465929664	27.060094139
3	529201	229.467311399	88.852871232
3	530120	230.210359646	71.192635961
3	530551	230.475841969	54.663867599
3	530678	230.573284764	80.590217422
3	530822	230.672600932	111.682795014
3	530852	230.686910448	84.091458831
3	531574	231.211167088	297.616621234
3	531818	231.355915104	110.386231681
3	531846	231.369263113	270.503972837
3	532046	231.5250616	81.349070944
3	532149	231.620225551	82.307943506
3	532293	231.759531716	44.884973873
3	532638	232.093151995	131.842259799
3	532782	232.190660802	236.819841126
3	533206	232.556556095	205.536843646
3	533382	232.697692482	90.474546255
3	533529	232.856393278	137.698066574
3	533872	233.058523824	96.531839016
3	534061	233.184046945	0.268391528
3	534154	233.240930476	118.542809628
3	534235	233.334846467	15.915479107
3	534647	233.659517778	26.619261045
3	535252	234.235864297	35.28304877
3	535267	234.240811302	54.109403044
3	535551	234.427857564	151.447774481
3	536102	234.674439974	463.952832309
3	536132	234.688938103	221.158954182
3	536445	234.838496837	270.038023526
3	536651	234.930015409	89.87062962
3	537248	235.237606931	6.011919138
3	537515	235.321390494	88.012735151
3	538548	235.989685106	43.175722709
3	539121	236.497906077	90.011244404
3	539430	236.831376786	402.170209237
3	539518	236.886098954	193.579710839
3	539609	236.936744483	561.243190018
3	539716	236.995228537	632.455451127
3	540085	237.273260841	41.713078863
3	540322	237.459464506	57.712141317
3	540384	237.512858101	96.41275684
3	540639	237.74307408	42.557773221
3	540654	237.747508795	6.221388312
3	540729	237.82098375	57.801999619
3	541260	238.14183825	337.44619517
3	541341	238.200257952	197.763463039
3	541815	238.392888658	150.98234556
3	542076	238.611510684	1.930810519
3	542241	238.751490213	98.887698199
3	542796	239.010169809	186.143164298
3	542875	239.072915443	130.083742745
3	543054	239.258396863	35.372972794
3	543283	239.505462407	80.028546764
3	543325	239.52553221	9.002162136
3	543377	239.559261521	96.664235273
3	543638	239.844101867	36.131432859
3	543816	240.027954818	118.886176094
3	543895	240.070154471	130.423355822
3	543932	240.091267311	5.663538498
3	544005	240.150153589	53.646585592
3	544466	240.403590877	13.899266839
3	544799	240.610774468	35.148297145
3	544908	240.674680817	281.809598256
3	545217	240.813988452	106.319776371
3	545432	240.925048994	418.465031046
3	545561	241.017514674	243.522170518
3	545937	241.201165293	144.623468804
3	546736	241.666171662	56.526062047
3	546753	241.671322881	66.879295162
3	546848	241.725355964	201.229070231
3	547310	241.9623732	9.243180382
3	547343	241.975156896	32.86203565
3	547499	242.089595777	7.783441037
3	547772	242.279853207	25.249693453
3	548068	242.493583766	61.428027861
3	549120	243.146197245	328.939499721
3	549704	243.600153226	67.416794389
3	550092	243.919014326	83.43886758
3	550201	243.997095167	19.961043938
3	550713	244.161259013	72.229560042
3	550910	244.266966304	422.611288359
3	551140	244.485162088	116.051748456
3	551311	244.705660448	58.779456413
3	551564	244.896770617	363.416700587
3	551958	245.088482597	55.898632733
3	552614	245.383792336	185.675007158
3	552690	245.430877169	92.187925827
3	552759	245.492419952	2.019958622
3	552901	245.556522378	211.208873169
3	553037	245.65444117	340.00633355
3	553230	245.827580893	319.000877786
3	553347	245.904603292	164.855653595
3	553426	245.951107768	100.445656165
3	553461	245.963222451	577.58596596
3	553871	246.208899672	18.125418342
3	554142	246.497901591	148.60014362
3	554346	246.714859081	3.239139816
3	554687	246.937310109	46.228528462
3	554961	247.090618632	66.935118252
3	555953	247.653623789	11.886230424
3	556083	247.739877593	131.730354847
3	556276	247.848773533	26.606762209
3	556639	248.067058625	189.331891963
3	556801	248.199907728	0.632275121
3	556934	248.27489046	42.653581203
3	557390	248.576898847	208.309163712
3	557561	248.695908213	29.043783021
3	557981	248.940737355	3.994275648
3	559200	249.717196748	76.707965457
3	559292	249.776820281	11.6809406
3	559830	250.210077081	148.029677821
3	561407	251.271080664	281.235820407
3	561462	251.293589523	161.526137513
3	561499	251.312523018	85.318667474
3	561787	251.54520898	65.996187107
3	562087	251.72737289	37.184252886
3	563140	252.258324989	182.94684055
3	563345	252.41889356	29.404304556
3	563533	252.513921313	11.305770097
3	564236	253.041540614	36.724933882
3	565222	253.756842515	1.887725022
3	565308	253.816327399	196.730121207
3	565435	253.931866511	65.4565954
3	565543	254.015810509	167.505812619
3	565923	254.369323466	121.525768946
3	566116	254.547656725	37.826983187
3	566180	254.598400599	120.184793573
3	566227	254.65935722	56.790023526
3	566661	254.97134716	62.098949101
3	567417	255.303654932	330.081982415
3	567451	255.317134478	41.610098841
3	567717	255.40740871	83.860801553
3	567834	255.475443176	167.090044361
3	568273	255.809117765	133.666103875
3	568437	255.948729952	536.531014787
3	568686	256.195067939	46.438477391
3	568701	256.195175472	5.379542482
3	568950	256.41045775	118.549417228
3	569011	256.476308535	49.354243613
3	569118	256.5511465	111.137743122
3	569183	256.612340063	15.314143131
3	569531	256.904242892	248.481321642
3	569553	256.909735859	306.005567983
3	570260	257.370750809	32.344667561
3	570325	257.455693291	81.069867973
3	570354	257.465238239	8.890422489
3	570903	257.953574478	100.679115749
3	571389	258.259958982	74.816968065
3	571659	258.460303658	67.089333275
3	572056	258.769026313	85.692310148
3	572171	258.834599406	5.493100461
3	572479	258.977388767	67.416822946
3	572894	259.145687508	125.335759739
3	573014	259.244224145	93.219646446
3	573041	259.260906133	112.055878604
3	573204	259.426744754	176.111354362
3	573531	259.7132453	63.626881067
3	573700	259.813419135	16.947222397
3	573773	259.86584768	5.213731799
3	573985	260.020950667	536.895212894
3	574017	260.031692881	248.41000447
3	574448	260.199913506	4.29166472
3	574525	260.219118377	37.186967175
3	574659	260.248562122	5.388423122
3	574856	260.330078312	31.80264592
3	574965	260.383695539	3.900739363
3	575015	260.404969319	22.76159481
3	575149	260.471136979	26.559772247
3	575236	260.522915017	64.26228352
3	575492	260.708436019	66.467875399
3	575583	260.7644363	340.426116829
3	575630	260.77803584	28.421974352
3	575645	260.781727067	48.88497867
3	575779	260.896269268	6.669450146
3	575876	260.99502418	356.245567119
3	576297	261.34678877	129.572819824
3	576360	261.390681464	79.487283606
3	576414	261.440512962	307.798722541
3	576475	261.463692734	40.015431588
3	577352	261.938512273	19.508005853
3	577589	262.109723846	349.004948567
3	578526	262.593056994	84.826680983
3	579033	262.859858439	19.500335461
3	579054	262.867009453	37.366979439
3	579074	262.870515676	168.40139233
3	579469	263.160384722	97.301965784
3	579550	263.208011062	89.458274621
3	579835	263.39832355	42.695392858
3	580994	264.293394138	30.937037592
3	581258	264.499242176	319.738336646
3	581486	264.703418278	184.187114534
3	581504	264.705457415	166.879922523
3	582005	265.049232083	249.774652329
3	582186	265.094532216	15.109262861
3	582414	265.226072615	50.823551406
3	582929	265.47555415	19.183931747
3	582952	265.487519265	15.602781007
3	584212	266.301319905	6.404351807
3	584290	266.352928991	197.461117195
3	584581	266.62051956	31.893943933
3	585019	266.891705548	73.962077722
3	585036	266.898387728	12.770561556
3	585126	266.937632806	1.991054922
3	585268	267.00694445	45.783217896
3	585518	267.149842437	28.971977958
3	585576	267.182627727	140.279940048
3	585613	267.196877047	59.596549419
3	585748	267.23457735	114.62740912
3	586540	267.829895063	81.538225375
3	586879	268.061414447	96.497763909
3	587311	268.360313289	67.772680304
3	587822	268.658886108	28.312852484
3	588172	268.916925299	216.360586508
3	588567	269.185074651	10.859487092
3	588758	269.345031316	1.104186243
3	588808	269.378680915	59.727154381
3	588938	269.467546369	93.195570896
3	589079	269.544646698	105.115426025
3	589343	269.765521869	215.104460834
3	589598	269.986777033	27.5810238
3	589738	270.092756017	14.66230486
3	590233	270.389510391	53.363275434
3	590402	270.465667164	129.983912924
3	590524	270.564152514	97.341847378
3	590622	270.582652949	58.265528648
3	590646	270.592336568	37.866547732
3	590747	270.661136911	69.225615432
3	590772	270.66928805	36.759052245
3	591042	270.771788132	96.386071953
3	591139	270.828940201	25.593646607
3	591163	270.837091221	171.909828729
3	591212	270.848201774	120.52033849
3	591407	270.963031001	22.469753064
3	592172	271.352666228	162.90565019
3	592308	271.424778308	31.434258396
3	592331	271.433140173	63.329254522
3	593158	271.929552177	201.866375992
3	593174	271.933475168	117.294184428
3	594114	272.39738353	27.946887018
3	594246	272.460605523	2.243426586
3	594465	272.540955859	117.186589267
3	594830	272.697608227	117.790652512
3	595059	272.785462717	84.371040865
3	595698	273.21934426	90.531034178
3	595792	273.292447413	3.014330959
3	595891	273.363985109	123.969808061
3	596187	273.587872172	115.319615895
3	596259	273.640633238	124.137461952
3	596281	273.649841994	86.008268246
3	596461	273.895543698	27.979547593
3	596568	274.00420235	17.460111488
3	596739	274.16558114	59.544837132
3	597014	274.489168819	136.153518126
3	597414	274.934323045	24.682892008
3	597444	274.947524615	64.963610676
3	597881	275.249287007	46.686434356
3	598086	275.392853652	279.307744685
3	598239	275.494421723	50.475816515
3	598469	275.708714163	47.279354471
3	598540	275.75456866	13.539709613
3	598709	275.869202417	22.664471843
3	598893	276.0102204	44.482715201
3	599015	276.168824303	387.632978749
3	599123	276.284094064	10.698205576
3	599321	276.442533694	40.035402501
3	600103	276.903349217	94.444008886
3	600281	276.947551389	85.31100699
3	602010	277.841710943	34.474621875
3	602111	277.90011978	184.176878887
3	602180	277.924180006	163.174643893
3	602582	278.195523405	32.891833459
3	602933	278.449892842	27.382312306
3	603025	278.502314942	153.890538048
3	603396	278.905376136	50.456937136
3	603474	278.956069944	20.782005051
3	603836	279.355097963	129.456710927
3	604763	279.840258877	31.896060194
3	605043	280.046420304	204.491192985
3	605599	280.355908532	118.91417104
3	605700	280.414606719	93.0273019
3	605839	280.526217499	186.034206909
3	605895	280.565051271	20.797025337
3	606098	280.69460516	65.473385542
3	606264	280.784780911	22.935120176
3	606542	280.915515832	139.55726528
3	606874	281.068526463	44.019634224
3	607087	281.16250623	177.110322919
3	607212	281.226077863	338.430784969
3	607236	281.233284245	112.42568051
3	607997	281.690417464	5.368643701
3	608369	281.902391185	156.658531953
3	608754	282.087869952	24.690963803
3	609206	282.365577915	84.834863142
3	609307	282.409920874	16.793759764
3	609418	282.481909392	38.537729
3	609453	282.4960699	45.025322063
3	609760	282.689312806	376.03703422
3	610012	282.847843525	29.982228976
3	610189	282.942500353	26.641577604
3	610236	282.975816795	18.181011332
3	610324	283.012667871	14.394258072
3	610362	283.025015349	173.277799694
3	611149	283.703131537	28.832797718
3	611709	284.237213312	119.108159564
3	611919	284.407535434	48.682463882
3	611978	284.434460365	136.625942365
3	612071	284.457551909	14.078901871
3	612381	284.681285429	303.16113262
3	612596	284.869837233	563.822180729
3	612669	284.933892693	27.34736745
3	613220	285.310860117	168.154814106
3	613260	285.333476807	119.44899435
3	613697	285.650422657	62.39847789
3	613819	285.713158332	30.12898594