version 2
run ChordDht-0-20211130-17:41:13-5180
attr configname ChordDht
attr datetime 20211130-17:41:13
attr experiment ChordDht
attr inifile configs.ini
attr iterationvars ""
attr iterationvars2 $repetition=0
attr measurement ""
attr network oversim.underlay.simpleunderlay.SimpleUnderlayNetwork
attr processid 5180
attr repetition 0
attr replication #0
attr resultdir results
attr runnumber 0
attr seedset 0

vector 1  SimpleUnderlayNetwork.globalObserver.globalStatistics  "GlobalDhtTestMap: Number of stored DHT entries"  ETV
vector 2  SimpleUnderlayNetwork.globalObserver.globalStatistics  "GlobalNodeList: Number of nodes"  ETV
vector 3  SimpleUnderlayNetwork.globalObserver.globalStatistics  "LifetimeChurn: Session Time"  ETV
vector 4  SimpleUnderlayNetwork.globalObserver.globalStatistics  "LifetimeChurn: Time between creates"  ETV
vector 5  SimpleUnderlayNetwork.globalObserver.globalStatistics  "LifetimeChurn: Time between deletes"  ETV
1	372088	140	585
1	419524	150	690
1	468302	160	751
1	498067	170	798
1	523036	180	835
1	547055	190	905
1	568607	200	981
1	592453	210	1080
1	616515	220	1147
1	640905	230	1200
1	665620	240	1244
1	709799	250	1306
1	754760	260	1384
1	802270	270	1483
1	849266	280	1539
1	877836	290	1592
1	903621	300	1648
1	927724	310	1711
1	952092	320	1793
1	974234	330	1875
1	997896	340	1940
1	1023583	350	1995
1	1048892	360	2033
1	1091821	370	2028
1	1139550	380	2014
1	1185747	390	1983
1	1231514	400	1969
1	1262286	410	2005
1	1287951	420	2036
1	1313545	430	2030
1	1337008	440	2013
1	1361410	450	1985
1	1384786	460	1997
1	1409388	470	2003
1	1434530	480	2031
1	1479915	490	2028
1	1527324	500	2024
1	1575116	510	2009
1	1622233	520	2003
1	1650907	530	2005
1	1676528	540	2023
1	1701540	550	2031
1	1726766	560	2030
1	1750308	570	1999
1	1773885	580	2003
1	1799849	590	2019
1	1823411	600	2015
1	1869649	610	2029
1	1917037	620	2019
1	1965403	630	2003
1	2011399	640	1999
1	2041033	650	2011
1	2066799	660	2022
1	2095189	670	2022
1	2122064	680	2014
1	2148884	690	2009
1	2173459	700	1996
1	2197238	710	2002
1	2225019	720	2013
1	2271468	730	2018
1	2318732	740	2019
1	2365164	750	2010
1	2411443	760	2002
1	2441678	770	2010
1	2468591	780	2010
1	2494753	790	2024
1	2521264	800	2032
1	2544276	810	2003
1	2570560	820	2004
1	2596553	830	2023
1	2622475	840	2025
1	2666881	850	2022
1	2715397	860	2028
1	2761242	870	2021
1	2807692	880	2023
1	2836219	890	2022
1	2861725	900	2032
1	2889262	910	2026
1	2915634	920	2033
1	2939921	930	2024
1	2963675	940	2024
1	2990449	950	2032
1	3016327	960	2035
1	3062077	970	2033
1	3110862	980	2028
1	3155793	990	2035
1	3202212	1000	2033
1	3230583	1010	2029
1	3257198	1020	2039
1	3286169	1030	2039
1	3310792	1040	2043
1	3333397	1050	2027
1	3357527	1060	2025
1	3382442	1070	2028
1	3408051	1080	2035
1	3455826	1090	2040
1	3499624	1100	2028
1	3546472	1110	2027
1	3589644	1120	2030
1	3611906	1130	1988
2	419523	150	405
2	568606	200	406
2	709798	250	404
2	903620	300	403
2	1023582	350	404
2	1231513	400	403
2	1361409	450	406
2	1527323	500	404
2	1701539	550	405
2	1823410	600	405
2	2041032	650	402
2	2173458	700	406
2	2365163	750	407
2	2521263	800	408
2	2666880	850	409
2	2861724	900	407
2	2990448	950	407
2	3202211	1000	407
2	3333396	1050	403
2	3499623	1100	401
3	442615	154.932502085	140.465912423
3	512558	176.007759879	139.620682547
3	515564	177.315949812	875.111665848
3	656401	236.543571782	15022.79407875
3	672790	241.901281461	13442.452721523
3	735969	255.900807441	3105.356476713
3	866133	285.721457746	3569.456362839
3	877513	289.883533128	7819.757208756
3	937992	314.515976717	7599.716845514
3	983061	333.799472824	1748.220000339
3	1129039	377.867855519	5228.700300884
3	1231599	400.028297493	6449.084911659
3	1272230	413.814792471	16205.786506115
3	1294282	422.569052216	8354.289974602
3	1295000	422.829128847	20259.088171032
3	1430299	478.538716712	21522.655325758
3	1579740	511.058374884	13158.142317856
3	1777211	581.110651748	11430.782307997
3	1942136	625.588483227	13792.153507378
3	2070182	661.152904663	1045.612257751
3	2073616	662.322172277	10050.718362973
3	2090401	668.250319967	6980.654150975
3	2093588	669.344818627	3898.322465179
3	2125756	681.447925092	1840.936746833
3	2155608	692.935956459	2235.990583347
3	2220680	718.558780479	7210.524044196
3	2240564	723.58354947	34791.941979237
3	2430413	766.160581057	10835.481882934
3	2442020	770.125438422	4299.222027387
3	2499341	791.918091638	22574.767907563
3	2564648	818.48205633	9965.029404471
3	2881625	907.704823395	8578.956410742
3	2888130	909.651776838	17852.14117585
3	2994078	951.610261242	4115.779962426
3	3345292	1055.340839414	12984.456356046
3	3376504	1067.820320201	2618.995905824
3	3399237	1076.70836642	29059.196036556
4	442615	154.932502085	16.788138104
4	512558	176.007759879	21.075257794
4	515564	177.315949812	1.308189933
4	656401	236.543571782	59.22762197
4	672790	241.901281461	5.357709679
4	735969	255.900807441	13.99952598
4	866133	285.721457746	29.820650305
4	877513	289.883533128	4.162075382
4	937992	314.515976717	24.632443589
4	983061	333.799472824	19.283496107
4	1129039	377.867855519	44.068382695
4	1231599	400.028297493	22.160441974
4	1272230	413.814792471	13.786494978
4	1294282	422.569052216	8.754259745
4	1295000	422.829128847	0.260076631
4	1430299	478.538716712	55.709587865
4	1579740	511.058374884	32.519658172
4	1777211	581.110651748	70.052276864
4	1942136	625.588483227	44.477831479
4	2070182	661.152904663	35.564421436
4	2073616	662.322172277	1.169267614
4	2090401	668.250319967	5.92814769
4	2093588	669.344818627	1.09449866
4	2125756	681.447925092	12.103106465
4	2155608	692.935956459	11.488031367
4	2220680	718.558780479	25.62282402
4	2240564	723.58354947	5.024768991
4	2430413	766.160581057	42.577031587
4	2442020	770.125438422	3.964857365
4	2499341	791.918091638	21.792653216
4	2564648	818.48205633	26.563964692
4	2881625	907.704823395	89.222767065
4	2888130	909.651776838	1.946953443
4	2994078	951.610261242	41.958484404
4	3345292	1055.340839414	103.730578172
4	3376504	1067.820320201	12.479480787
4	3399237	1076.70836642	8.888046219
5	494778	168.479789766	29.317554765
5	546448	189.673441028	21.193651262
5	558083	195.066372463	5.392931435
5	603721	214.63535223	19.568979767
5	636552	228.175995473	13.540643243
5	656656	236.646391515	8.470396042
5	713735	250.837923133	14.191531618
5	828710	275.812845672	24.974922539
5	851306	280.398414508	4.585568836
5	905102	300.628442426	20.230027918
5	989320	336.383176319	35.754733893
5	1085100	368.530769928	32.147593609
5	1257584	408.041205557	39.510435629
5	1338616	440.559765353	32.518559796
5	1351039	445.565577941	5.005812588
5	1395174	464.301283337	18.735705396
5	1759598	574.069239487	109.76795615
5	1818568	598.186592917	24.11735343
5	1847305	605.278684313	7.092091396
5	1849509	605.674987696	0.396303383
5	1894062	615.362903385	9.687915689
5	2023549	643.207486227	27.844582842
5	2112770	676.082444959	32.874958732
5	2271676	730.039739132	53.957294173
5	2389709	755.520856948	25.481117816
5	2469304	780.292223127	24.771366179
5	2778406	873.70868896	93.416465833
5	2788409	875.96347201	2.25478305
5	2920388	922.060738566	46.097266556
5	2935917	928.356792678	6.296054112
5	2962026	939.336325289	10.979532611
5	3143308	987.157388869	47.82106358
5	3250143	1017.176347759	30.01895889
5	3256961	1019.872803673	2.696455914
5	3286271	1030.053650457	10.180846784
5	3299354	1035.465240776	5.411590319
5	3304738	1037.42761566	1.962374884
5	3403009	1078.285260898	40.857645238
5	3405193	1079.01882155	0.733560652
5	3413192	1081.189036386	2.170214836
5	3522950	1105.200836158	24.011799772
5	3612030	1130.107784025	24.906947867
5	3613626	1131.384735991	1.276951966
5	3620957	1138.550018313	7.165282322
