version 2
run ChordDht-10-20211202-16:04:07-10332
attr Lifetime 5000s
attr configname ChordDht
attr datetime 20211202-16:04:07
attr experiment ChordDht
attr inifile configs.ini
attr iterationvars $Lifetime=5000s
attr iterationvars2 "$Lifetime=5000s, $repetition=0"
attr measurement $Lifetime=5000s
attr network oversim.underlay.simpleunderlay.SimpleUnderlayNetwork
attr processid 10332
attr repetition 0
attr replication #0
attr resultdir results
attr runnumber 10
attr seedset 10

vector 61  SimpleUnderlayNetwork.globalObserver.globalStatistics  "GlobalNodeList: Number of nodes"  ETV
vector 62  SimpleUnderlayNetwork.globalObserver.globalStatistics  "GlobalDhtTestMap: Number of stored DHT entries"  ETV
vector 63  SimpleUnderlayNetwork.globalObserver.globalStatistics  "LifetimeChurn: Session Time"  ETV
vector 64  SimpleUnderlayNetwork.globalObserver.globalStatistics  "LifetimeChurn: Time between creates"  ETV
vector 65  SimpleUnderlayNetwork.globalObserver.globalStatistics  "LifetimeChurn: Time between deletes"  ETV
61	496702	150	500
61	699019	200	501
61	868406	250	501
61	1119751	300	498
61	1273135	350	498
61	1508090	400	495
61	1688235	450	494
61	1878244	500	493
61	2111686	550	498
61	2271300	600	498
61	2537099	650	497
61	2704282	700	498
61	2924505	750	500
61	3139598	800	502
61	3323507	850	504
61	3580235	900	503
61	3739951	950	500
61	3979280	1000	498
61	4169619	1050	501
61	4371227	1100	504
62	496703	150	797
62	549704	160	889
62	606502	170	969
62	641949	180	1043
62	670371	190	1091
62	699020	200	1187
62	728657	210	1288
62	758713	220	1383
62	790768	230	1465
62	819689	240	1534
62	868407	250	1595
62	921404	260	1679
62	977078	270	1784
62	1029336	280	1874
62	1084026	290	1950
62	1119752	300	2016
62	1148669	310	2087
62	1180807	320	2178
62	1211557	330	2278
62	1240536	340	2372
62	1273136	350	2446
62	1302340	360	2499
62	1349271	370	2485
62	1400285	380	2475
62	1455502	390	2487
62	1508091	400	2467
62	1562758	410	2469
62	1596362	420	2475
62	1627622	430	2486
62	1658053	440	2473
62	1688236	450	2454
62	1718726	460	2455
62	1751067	470	2461
62	1782536	480	2462
62	1829255	490	2489
62	1878245	500	2472
62	1932452	510	2453
62	1987716	520	2461
62	2041949	530	2456
62	2080138	540	2458
62	2111687	550	2477
62	2141024	560	2477
62	2172254	570	2459
62	2205885	580	2446
62	2239156	590	2462
62	2271301	600	2477
62	2319427	610	2485
62	2371904	620	2471
62	2426869	630	2450
62	2480155	640	2449
62	2537100	650	2462
62	2577753	660	2462
62	2608513	670	2470
62	2639537	680	2471
62	2669839	690	2444
62	2704283	700	2458
62	2736966	710	2461
62	2767569	720	2464
62	2813941	730	2465
62	2868282	740	2468
62	2924506	750	2460
62	2980389	760	2460
62	3039171	770	2475
62	3075879	780	2470
62	3109989	790	2473
62	3139599	800	2463
62	3170695	810	2463
62	3206617	820	2471
62	3240292	830	2475
62	3273016	840	2488
62	3323508	850	2479
62	3377031	860	2459
62	3434219	870	2465
62	3485861	880	2482
62	3541670	890	2475
62	3580236	900	2472
62	3611643	910	2466
62	3642325	920	2461
62	3676286	930	2493
62	3706301	940	2463
62	3739952	950	2469
62	3771477	960	2476
62	3819291	970	2481
62	3873193	980	2475
62	3926524	990	2489
62	3979281	1000	2477
62	4033463	1010	2471
62	4073207	1020	2483
62	4105640	1030	2481
62	4137100	1040	2482
62	4169620	1050	2491
62	4201929	1060	2480
62	4238363	1070	2472
62	4269704	1080	2479
62	4318132	1090	2479
62	4371228	1100	2484
62	4427734	1110	2503
62	4478728	1120	2469
62	4539341	1130	2486
62	4573855	1140	2457
63	535199	157.396567811	5056.693115926
63	541296	158.490175785	3411.222516948
63	626248	175.028962921	1369.776827628
63	635828	177.942778261	997.871269938
63	642235	180.180828495	10224.908588246
63	694223	198.352074177	1379.030016287
63	731888	211.067662262	1489.817007502
63	782577	227.690637699	2718.428766411
63	819448	239.931797462	2666.455588468
63	836386	243.557055953	4122.631508758
63	928267	261.16398748	7155.723980655
63	1058087	285.061882973	2713.301607105
63	1098112	293.023311981	1347.011919687
63	1143395	308.064195629	1184.449428253
63	1158815	313.400792635	7226.702712522
63	1245263	341.351308662	1179.581736875
63	1267086	348.436674219	6991.537386038
63	1334692	366.994940933	7175.433999072
63	1402674	380.452886063	4338.735768688
63	1433698	386.199891567	6608.635409848
63	1447323	388.70677228	12975.184321271
63	1523508	402.736984752	3055.726844963
63	1585012	416.255858248	3820.356459159
63	1601625	421.941501748	1718.427341933
63	1602547	422.231852746	11684.829877235
63	1646481	436.386758023	21.164296711
63	1729385	463.465141641	3862.548744293
63	1769198	475.756383533	12737.720935415
63	1772010	476.869493781	591.126266442
63	1837896	492.087954866	9198.994781532
63	1847718	494.000139116	4413.324703347
63	1869477	498.352345277	1195.899089329
63	1930918	509.682499401	602.410424745
63	2011014	524.077937126	4100.908525231
63	2021632	526.203032688	1410.912363771
63	2070390	537.270942049	4315.366611914
63	2072131	537.850302455	1888.008919335
63	2095150	544.538626734	5024.395728172
63	2102810	546.860374611	1123.802210992
63	2118423	552.455706297	10003.705137047
63	2170570	569.424094156	123.680398084
63	2188142	574.471070061	5079.460238864
63	2305121	607.12363783	5712.029890219
63	2354679	616.769822948	178.611911579
63	2357016	617.26256695	5350.464346161
63	2426764	629.987955446	5141.910369174
63	2490991	641.915478885	1202.834949166
63	2526476	648.311566606	5159.230306891
63	2558933	655.52382585	4456.85407581
63	2561994	656.445931546	205.771682284
63	2570965	658.434450337	5384.799316879
63	2593612	665.014362941	3097.000659126
63	2610054	670.618951991	4.935774463
63	2667535	689.208086576	475.885546608
63	2679890	693.029940291	17472.072670817
63	2700802	699.057347315	4746.687612479
63	2807750	728.937370967	2209.466362947
63	2838650	734.757649899	10704.680191101
63	2845022	735.974474167	4570.413654781
63	2860348	738.68019091	1605.344098055
63	2884025	742.920063819	2828.0017196
63	2909592	747.527657237	1526.611577847
63	2915227	748.635943665	6259.454530021
63	2944414	753.735684461	490.602708738
63	2968529	758.135404012	674.812027184
63	2969581	758.289792574	4350.112919488
63	2971192	758.556785385	3633.541886712
63	3054258	773.880023879	7418.689823934
63	3070199	778.654778294	588.189466256
63	3108205	789.421237412	4021.489152622
63	3108616	789.551056757	6261.438620776
63	3172105	810.37200914	18847.030760184
63	3176011	811.464815754	4254.109460008
63	3202076	818.553027264	24436.800382574
63	3281898	842.140549891	10224.839305971
63	3314240	848.352896924	6104.523623751
63	3320546	849.437102696	3073.913552222
63	3344932	853.975340797	1043.958052206
63	3374205	859.485831666	8747.031189311
63	3405966	864.817890388	462.439812083
63	3543211	890.350934742	13219.051380792
63	3551315	891.880272384	309.644095153
63	3567359	896.606242064	3080.985063025
63	3642486	920.05332632	2027.684207474
63	3653712	923.838968219	511.672686136
63	3680625	931.362907481	968.179419025
63	3806457	967.618416586	25249.920724779
63	3819582	970.051716457	2197.033735156
63	3849594	975.779761685	3178.105126549
63	4015366	1006.889171697	2817.78093332
63	4042093	1011.701602916	4271.455888499
63	4055632	1015.549823411	6912.005924324
63	4088896	1024.97634781	950.570202142
63	4150314	1043.833490569	10770.7150702
63	4196347	1058.325860031	5606.339276709
63	4210144	1062.606445647	6157.239756653
63	4211443	1062.989436599	995.083074983
63	4244795	1072.023321836	2647.712607791
63	4265527	1078.450811972	877.974233499
63	4394409	1103.972863954	1836.364681189
63	4453528	1115.237511309	117.302014876
63	4472361	1118.842749984	8053.629159027
63	4488070	1121.533516246	3903.023049969
63	4501862	1123.730338731	1593.832019417
63	4539869	1130.092381732	270.149498336
63	4540848	1130.292469952	154.002990723
63	4547442	1131.324883638	771.716256446
63	4563172	1135.473821583	7865.985821084
63	4565378	1136.265597425	372.858338856
63	4570020	1138.25466116	751.456422336
63	4577353	1142.460906839	2531.102796265
64	535199	157.396567811	47.471944411
64	541296	158.490175785	1.093607974
64	626248	175.028962921	16.538787136
64	635828	177.942778261	2.91381534
64	642235	180.180828495	2.238050234
64	694223	198.352074177	18.171245682
64	731888	211.067662262	12.715588085
64	782577	227.690637699	16.622975437
64	819448	239.931797462	12.241159763
64	836386	243.557055953	3.625258491
64	928267	261.16398748	17.606931527
64	1058087	285.061882973	23.897895493
64	1098112	293.023311981	7.961429008
64	1143395	308.064195629	15.040883648
64	1158815	313.400792635	5.336597006
64	1245263	341.351308662	27.950516027
64	1267086	348.436674219	7.085365557
64	1334692	366.994940933	18.558266714
64	1402674	380.452886063	13.45794513
64	1433698	386.199891567	5.747005504
64	1447323	388.70677228	2.506880713
64	1523508	402.736984752	14.030212472
64	1585012	416.255858248	13.518873496
64	1601625	421.941501748	5.6856435
64	1602547	422.231852746	0.290350998
64	1646481	436.386758023	14.154905277
64	1729385	463.465141641	27.078383618
64	1769198	475.756383533	12.291241892
64	1772010	476.869493781	1.113110248
64	1837896	492.087954866	15.218461085
64	1847718	494.000139116	1.91218425
64	1869477	498.352345277	4.352206161
64	1930918	509.682499401	11.330154124
64	2011014	524.077937126	14.395437725
64	2021632	526.203032688	2.125095562
64	2070390	537.270942049	11.067909361
64	2072131	537.850302455	0.579360406
64	2095150	544.538626734	6.688324279
64	2102810	546.860374611	2.321747877
64	2118423	552.455706297	5.595331686
64	2170570	569.424094156	16.968387859
64	2188142	574.471070061	5.046975905
64	2305121	607.12363783	32.652567769
64	2354679	616.769822948	9.646185118
64	2357016	617.26256695	0.492744002
64	2426764	629.987955446	12.725388496
64	2490991	641.915478885	11.927523439
64	2526476	648.311566606	6.396087721
64	2558933	655.52382585	7.212259244
64	2561994	656.445931546	0.922105696
64	2570965	658.434450337	1.988518791
64	2593612	665.014362941	6.579912604
64	2610054	670.618951991	5.60458905
64	2667535	689.208086576	18.589134585
64	2679890	693.029940291	3.821853715
64	2700802	699.057347315	6.027407024
64	2807750	728.937370967	29.880023652
64	2838650	734.757649899	5.820278932
64	2845022	735.974474167	1.216824268
64	2860348	738.68019091	2.705716743
64	2884025	742.920063819	4.239872909
64	2909592	747.527657237	4.607593418
64	2915227	748.635943665	1.108286428
64	2944414	753.735684461	5.099740796
64	2968529	758.135404012	4.399719551
64	2969581	758.289792574	0.154388562
64	2971192	758.556785385	0.266992811
64	3054258	773.880023879	15.323238494
64	3070199	778.654778294	4.774754415
64	3108205	789.421237412	10.766459118
64	3108616	789.551056757	0.129819345
64	3172105	810.37200914	20.820952383
64	3176011	811.464815754	1.092806614
64	3202076	818.553027264	7.08821151
64	3281898	842.140549891	23.587522627
64	3314240	848.352896924	6.212347033
64	3320546	849.437102696	1.084205772
64	3344932	853.975340797	4.538238101
64	3374205	859.485831666	5.510490869
64	3405966	864.817890388	5.332058722
64	3543211	890.350934742	25.533044354
64	3551315	891.880272384	1.529337642
64	3567359	896.606242064	4.72596968
64	3642486	920.05332632	23.447084256
64	3653712	923.838968219	3.785641899
64	3680625	931.362907481	7.523939262
64	3806457	967.618416586	36.255509105
64	3819582	970.051716457	2.433299871
64	3849594	975.779761685	5.728045228
64	4015366	1006.889171697	31.109410012
64	4042093	1011.701602916	4.812431219
64	4055632	1015.549823411	3.848220495
64	4088896	1024.97634781	9.426524399
64	4150314	1043.833490569	18.857142759
64	4196347	1058.325860031	14.492369462
64	4210144	1062.606445647	4.280585616
64	4211443	1062.989436599	0.382990952
64	4244795	1072.023321836	9.033885237
64	4265527	1078.450811972	6.427490136
64	4394409	1103.972863954	25.522051982
64	4453528	1115.237511309	11.264647355
64	4472361	1118.842749984	3.605238675
64	4488070	1121.533516246	2.690766262
64	4501862	1123.730338731	2.196822485
64	4539869	1130.092381732	6.362043001
64	4540848	1130.292469952	0.20008822
64	4547442	1131.324883638	1.032413686
64	4563172	1135.473821583	4.148937945
64	4565378	1136.265597425	0.791775842
64	4570020	1138.25466116	1.989063735
64	4577353	1142.460906839	4.206245679
65	551960	160.433268736	22.161171282
65	571179	163.679744845	3.246476109
65	638715	178.890374229	15.210629384
65	647879	182.407756048	3.517381819
65	711688	204.274346236	21.866590188
65	742770	214.711701472	10.437355236
65	791231	230.1318734	15.420171928
65	793666	230.836030311	0.704156911
65	844782	245.280582463	14.444552152
65	871129	250.555793023	5.27521056
65	924114	260.396480943	9.84068792
65	954197	265.465253625	5.068772682
65	990350	272.541460284	7.076206659
65	1047028	283.009873865	10.468413581
65	1136839	305.885863453	22.875989588
65	1153470	311.524212455	5.638349002
65	1198863	325.510389859	13.986177404
65	1201513	326.414597428	0.904207569
65	1242849	340.631406652	14.216809224
65	1273623	350.091419839	9.460013187
65	1286337	354.492736103	4.401316264
65	1292211	356.437803257	1.945067154
65	1329918	366.07250957	9.634706313
65	1349200	369.986949206	3.914439636
65	1416278	382.985712147	12.998762941
65	1429093	385.14146914	2.155756993
65	1440456	387.564737635	2.423268495
65	1461636	391.271964378	3.707226743
65	1481137	394.826702246	3.554737868
65	1586248	416.719348421	21.892646175
65	1588039	417.359846138	0.640497717
65	1664982	442.551054734	25.191208596
65	1676394	446.138782994	3.58772826
65	1708608	456.545753757	10.406970763
65	1714405	458.622681948	2.076928191
65	1730177	463.722506997	5.099825049
65	1744884	468.071310615	4.348803618
65	1753416	470.641934918	2.570624303
65	1870917	498.709790277	28.067855359
65	2024932	526.885725361	28.175935084
65	2149469	562.828722217	35.942996856
65	2215123	582.89929338	20.070571163
65	2221993	584.850439035	1.951145655
65	2236886	589.451239385	4.60080035
65	2241779	590.668848571	1.217609186
65	2274632	600.953752296	10.284903725
65	2303665	606.791507527	5.837755231
65	2416570	628.081052181	21.289544654
65	2425764	629.802330898	1.721278717
65	2444533	633.322103061	3.519772163
65	2459996	636.354824607	3.032721546
65	2503787	644.100827906	7.746003299
65	2562067	656.478196263	12.377368357
65	2581135	661.104990031	4.626793768
65	2610061	670.618951991	9.51396196
65	2631479	677.492167535	6.873215544
65	2633045	678.10449224	0.612324705
65	2664910	688.383114714	10.278622474
65	2690268	695.777687429	7.394572715
65	2710042	701.932703824	6.155016395
65	2807412	728.839759425	26.907055601
65	2815211	730.23651323	1.396753805
65	2882623	742.694433988	12.457920758
65	2894565	744.515090376	1.820656388
65	2958003	756.032338326	11.51724795
65	2993725	762.084804798	6.052466472
65	3067903	777.921413307	15.836608509
65	3077317	780.381734527	2.46032122
65	3102572	787.819133506	7.437398979
65	3117185	792.468584317	4.649450811
65	3181180	812.399686061	19.931101744
65	3229239	826.845322664	14.445636603
65	3308698	847.21761383	20.372291166
65	3337483	852.649761842	5.432148012
65	3347063	854.305261814	1.655499972
65	3357809	856.314464273	2.009202459
65	3365205	857.781929432	1.467465159
65	3498802	882.185189195	24.403259763
65	3510718	884.293237747	2.108048552
65	3524760	887.063716345	2.770478598
65	3549632	891.521031904	4.457315559
65	3557558	893.561298391	2.040266487
65	3582062	900.635607857	7.074309466
65	3585319	901.710046929	1.074439072
65	3617713	911.796301034	10.086254105
65	3719933	943.768659215	31.972358181
65	3722217	944.620550396	0.851891181
65	3729490	946.876823087	2.256272691
65	3733829	948.180279584	1.303456497
65	3894573	983.872987012	35.692707428
65	4049767	1013.665345799	29.792358787
65	4050273	1013.842600008	0.177254209
65	4179246	1052.995760223	39.153160215
65	4279287	1082.044444089	29.048683866
65	4356009	1097.092924146	15.048480057
65	4372125	1100.139554129	3.046629983
65	4374840	1100.550832968	0.411278839
65	4427590	1109.964484733	9.413651765
65	4541582	1130.447615626	20.483130893
65	4571117	1138.815821583	8.368205957
65	4571494	1139.011013642	0.195192059
