version 2
run Chord-0-20211107-10:46:49-8168
attr configname Chord
attr datetime 20211107-10:46:49
attr experiment Chord
attr inifile verify1.ini
attr iterationvars ""
attr iterationvars2 $repetition=0
attr measurement ""
attr network oversim.underlay.simpleunderlay.SimpleUnderlayNetwork
attr processid 8168
attr repetition 0
attr replication #0
attr resultdir results
attr runnumber 0
attr seedset 0

vector 1  SimpleUnderlayNetwork.globalObserver.globalStatistics  "GlobalNodeList: Number of nodes"  ETV
vector 2  SimpleUnderlayNetwork.globalObserver.globalStatistics  "GlobalDhtTestMap: Number of stored DHT entries"  ETV
vector 3  SimpleUnderlayNetwork.globalObserver.globalStatistics  "LifetimeChurn: Session Time"  ETV
vector 4  SimpleUnderlayNetwork.globalObserver.globalStatistics  "LifetimeChurn: Time between creates"  ETV
vector 5  SimpleUnderlayNetwork.globalObserver.globalStatistics  "LifetimeChurn: Time between deletes"  ETV
1	94725	200	102
1	127459	250	103
2	94726	200	155
2	101608	210	172
2	107576	220	189
2	113420	230	201
2	119817	240	211
2	127460	250	233
2	134845	260	249
2	142356	270	277
2	148524	280	286
2	154270	290	296
3	95667	201.534083941	1298.445635604
3	113324	229.573826406	1477.212344653
3	115988	233.340623272	669.540590861
3	121019	241.33071356	1847.327651001
3	122300	243.253021381	463.390027539
3	128305	251.230853664	1505.784258637
3	131058	255.285585504	768.253341867
3	153437	288.294975219	1386.291352021
3	157545	297.829507459	223.1392081
3	158538	299.85553792	1753.714645023
4	95667	201.534083941	10.373057817
4	113324	229.573826406	28.039742465
4	115988	233.340623272	3.766796866
4	121019	241.33071356	7.990090288
4	122300	243.253021381	1.922307821
4	128305	251.230853664	7.977832283
4	131058	255.285585504	4.05473184
4	153437	288.294975219	33.009389715
4	157545	297.829507459	9.53453224
4	158538	299.85553792	2.026030461
5	111682	226.39764974	35.159005134
5	113747	230.27279506	3.87514532
5	128460	251.676516241	21.403721181
5	135193	260.440243709	8.763727468
5	154757	291.190553372	30.750309663
5	156439	295.380005745	4.189452373
