version 2
run ChordDht-3-20211202-14:40:35-10332
attr Lifetime 400s
attr configname ChordDht
attr datetime 20211202-14:40:35
attr experiment ChordDht
attr inifile configs.ini
attr iterationvars $Lifetime=400s
attr iterationvars2 "$Lifetime=400s, $repetition=0"
attr measurement $Lifetime=400s
attr network oversim.underlay.simpleunderlay.SimpleUnderlayNetwork
attr processid 10332
attr repetition 0
attr replication #0
attr resultdir results
attr runnumber 3
attr seedset 3

vector 19  SimpleUnderlayNetwork.globalObserver.globalStatistics  "GlobalNodeList: Number of nodes"  ETV
vector 20  SimpleUnderlayNetwork.globalObserver.globalStatistics  "GlobalDhtTestMap: Number of stored DHT entries"  ETV
vector 21  SimpleUnderlayNetwork.globalObserver.globalStatistics  "LifetimeChurn: Time between deletes"  ETV
vector 22  SimpleUnderlayNetwork.globalObserver.globalStatistics  "LifetimeChurn: Session Time"  ETV
vector 23  SimpleUnderlayNetwork.globalObserver.globalStatistics  "LifetimeChurn: Time between creates"  ETV
19	455999	150	494
19	629412	200	494
19	776587	250	503
19	967756	300	503
19	1117546	350	503
19	1293946	400	502
19	1455903	450	515
19	1617406	500	501
19	1773640	550	492
19	1922360	600	503
19	2087371	650	497
19	2236924	700	497
19	2395398	750	495
19	2548797	800	499
19	2687769	850	475
19	2832642	900	475
19	2961158	950	472
19	3098365	1000	484
19	3230815	1050	486
19	3366006	1100	480
20	456000	150	683
20	497930	160	768
20	538496	170	845
20	569951	180	897
20	602587	190	970
20	629413	200	1053
20	658787	210	1128
20	684630	220	1204
20	712180	230	1275
20	740787	240	1344
20	776588	250	1414
20	818284	260	1497
20	860707	270	1567
20	899408	280	1641
20	938845	290	1725
20	967757	300	1791
20	996217	310	1867
20	1026310	320	1940
20	1060785	330	2019
20	1089255	340	2113
20	1117547	350	2185
20	1146049	360	2226
20	1179125	370	2233
20	1216782	380	2195
20	1256012	390	2205
20	1293947	400	2206
20	1329601	410	2205
20	1362038	420	2232
20	1390497	430	2234
20	1420052	440	2248
20	1455904	450	2249
20	1490679	460	2250
20	1519901	470	2252
20	1547700	480	2258
20	1582103	490	2246
20	1617407	500	2253
20	1650927	510	2260
20	1686506	520	2264
20	1718904	530	2258
20	1749810	540	2268
20	1773641	550	2248
20	1802838	560	2247
20	1831305	570	2259
20	1861178	580	2260
20	1890866	590	2258
20	1922361	600	2256
20	1954071	610	2249
20	1987870	620	2248
20	2021432	630	2255
20	2053726	640	2246
20	2087372	650	2256
20	2118079	660	2263
20	2145066	670	2271
20	2178858	680	2273
20	2207598	690	2247
20	2236925	700	2243
20	2265320	710	2263
20	2299768	720	2257
20	2332131	730	2266
20	2365026	740	2237
20	2395399	750	2225
20	2427393	760	2225
20	2461188	770	2224
20	2489864	780	2244
20	2518355	790	2255
20	2548798	800	2223
20	2577118	810	2225
20	2604693	820	2218
20	2628885	830	2234
20	2657307	840	2222
20	2687770	850	2255
20	2717338	860	2237
20	2746794	870	2228
20	2774760	880	2234
20	2804994	890	2213
20	2832643	900	2224
20	2859872	910	2228
20	2885226	920	2230
20	2913747	930	2204
20	2938596	940	2192
20	2961159	950	2173
20	2986302	960	2179
20	3015170	970	2194
20	3040908	980	2182
20	3069234	990	2184
20	3098366	1000	2168
20	3125644	1010	2157
20	3154250	1020	2150
20	3180143	1030	2150
20	3205858	1040	2163
20	3230816	1050	2164
20	3256027	1060	2145
20	3281711	1070	2152
20	3309835	1080	2138
20	3339182	1090	2138
20	3366007	1100	2156
20	3392254	1110	2150
20	3419433	1120	2144
20	3447168	1130	2132
20	3472081	1140	2117
21	456663	150.132508583	0.296040247
21	461377	151.135527945	1.003019362
21	467600	152.205089364	1.069561419
21	471329	153.14989617	0.944806806
21	473803	153.66396629	0.51407012
21	476878	154.336235845	0.672269555
21	481182	155.354652438	1.018416593
21	481579	155.48266386	0.128011422
21	483623	156.045842926	0.563179066
21	483747	156.076997872	0.031154946
21	487055	157.06121509	0.984217218
21	488187	157.399383157	0.338168067
21	489500	157.63142116	0.232038003
21	489986	157.742754335	0.111333175
21	490212	157.791503023	0.048748688
21	495865	159.462139074	1.670636051
21	497494	159.892648883	0.430509809
21	503488	161.458955322	1.566306439
21	507575	162.388943294	0.929987972
21	510807	163.276631793	0.887688499
21	511791	163.617035431	0.340403638
21	511979	163.658178853	0.041143422
21	516830	164.858889294	1.200710441
21	525499	166.969502045	2.110612751
21	527947	167.586304331	0.616802286
21	528118	167.628069955	0.041765624
21	536839	169.661990446	2.033920491
21	539984	170.358485033	0.696494587
21	541052	170.587445286	0.228960253
21	545588	171.81219691	1.224751624
21	545986	171.911684154	0.099487244
21	547307	172.375218096	0.463533942
21	548813	172.866497027	0.491278931
21	552059	173.907426406	1.040929379
21	553913	174.701904224	0.794477818
21	554119	174.755765446	0.053861222
21	554588	174.928996691	0.173231245
21	563580	178.097154743	3.168158052
21	564056	178.280718953	0.18356421
21	564539	178.433482846	0.152763893
21	566867	179.139096642	0.705613796
21	567852	179.334921772	0.19582513
21	568014	179.376437839	0.041516067
21	570954	180.379924819	1.00348698
21	573796	181.286243275	0.906318456
21	579356	183.121660821	1.835417546
21	589480	185.621098851	2.49943803
21	591623	186.136017376	0.514918525
21	591731	186.189885479	0.053868103
21	593256	186.745938898	0.556053419
21	595499	187.686556969	0.940618071
21	600014	189.331955305	1.645398336
21	600468	189.431629319	0.099674014
21	602107	189.886825995	0.455196676
21	604239	190.525461102	0.638635107
21	608774	192.095798606	1.570337504
21	611678	193.216320606	1.120522
21	613343	194.002701744	0.786381138
21	613870	194.155046007	0.152344263
21	618647	196.218872302	2.063826295
21	619812	196.758479676	0.539607374
21	621924	197.613102128	0.854622452
21	624033	198.305078938	0.69197681
21	629435	200.013323003	1.708244065
21	629567	200.048178223	0.03485522
21	630279	200.288771469	0.240593246
21	632325	200.954765323	0.665993854
21	636487	202.09488702	1.140121697
21	645811	205.203590998	3.108703978
21	646125	205.358339182	0.154748184
21	648405	206.186437222	0.82809804
21	653451	208.199937917	2.013500695
21	653865	208.343929211	0.143991294
21	657396	209.529547761	1.18561855
21	657742	209.677662985	0.148115224
21	659532	210.11896211	0.441299125
21	661036	210.527245536	0.408283426
21	663566	211.492936178	0.965690642
21	666660	212.729482559	1.236546381
21	666796	212.767885649	0.03840309
21	671121	214.50480474	1.736919091
21	671496	214.64838689	0.14358215
21	672597	214.951764392	0.303377502
21	677149	216.712806401	1.761042009
21	677220	216.746909777	0.034103376
21	677848	216.993490329	0.246580552
21	681283	218.45454448	1.461054151
21	682912	219.172272266	0.717727786
21	683430	219.41309463	0.240822364
21	685129	220.271240911	0.858146281
21	685185	220.295575873	0.024334962
21	687277	221.105466733	0.80989086
21	688351	221.487343944	0.381877211
21	689909	222.223138099	0.735794155
21	690480	222.484998135	0.261860036
21	690897	222.651271925	0.16627379
21	700162	225.629184294	2.977912369
21	702225	226.385229481	0.756045187
21	703427	226.738163435	0.352933954
21	706005	227.974846938	1.236683503
21	711475	229.794794443	1.819947505
21	718251	231.772686669	1.977892226
21	718462	231.83874358	0.066056911
21	723636	233.46771904	1.62897546
21	724726	233.807497838	0.339778798
21	725028	233.903251909	0.095754071
21	725862	234.146300829	0.24304892
21	729046	235.084897778	0.938596949
21	730012	235.504715993	0.419818215
21	733665	237.110795448	1.606079455
21	733966	237.24578395	0.134988502
21	734587	237.46986241	0.22407846
21	734978	237.615492726	0.145630316
21	738110	238.831228003	1.215735277
21	740579	239.914105139	1.082877136
21	746501	242.054171624	2.140066485
21	747766	242.445600777	0.391429153
21	758530	245.299469097	2.85386832
21	759247	245.579802615	0.280333518
21	759647	245.736205569	0.156402954
21	765973	247.437694219	1.70148865
21	768260	247.994872325	0.557178106
21	771665	248.776933808	0.782061483
21	772764	248.987713956	0.210780148
21	785607	252.515482718	3.527768762
21	788043	253.106380996	0.590898278
21	789708	253.52701687	0.420635874
21	790717	253.845836903	0.318820033
21	791851	254.231349735	0.385512832
21	793634	254.803556198	0.572206463
21	794492	255.012983515	0.209427317
21	795216	255.176656988	0.163673473
21	798477	255.878515141	0.701858153
21	800133	256.08212591	0.203610769
21	800592	256.158240943	0.076115033
21	802260	256.452778916	0.294537973
21	808762	258.233575934	1.780797018
21	809884	258.511925308	0.278349374
21	818577	260.065504332	1.553579024
21	821850	260.76600012	0.700495788
21	822640	260.943260728	0.177260608
21	830588	262.592522627	1.649261899
21	833727	263.443700992	0.851178365
21	834415	263.581091497	0.137390505
21	835735	263.89377555	0.312684053
21	835955	263.945625418	0.051849868
21	845282	266.45253184	2.506906422
21	845855	266.609731891	0.157200051
21	850397	267.664502766	1.054770875
21	850715	267.753154695	0.088651929
21	852996	268.345259279	0.592104584
21	857743	269.299325766	0.954066487
21	862695	270.512908099	1.213582333
21	864937	271.073446445	0.560538346
21	869999	272.072041384	0.998594939
21	872975	272.818856045	0.746814661
21	874492	273.186305848	0.367449803
21	878143	274.088947672	0.902641824
21	879191	274.402292756	0.313345084
21	879208	274.410020165	0.007727409
21	879263	274.418408274	0.008388109
21	880140	274.720326048	0.301917774
21	880791	274.926149788	0.20582374
21	881568	275.189420747	0.263270959
21	882091	275.297588786	0.108168039
21	888007	276.736059082	1.438470296
21	888850	276.955595854	0.219536772
21	890066	277.265238716	0.309642862
21	890153	277.277550875	0.012312159
21	895872	278.953797049	1.676246174
21	897393	279.539821044	0.586023995
21	901047	280.458335802	0.918514758
21	902148	280.698643882	0.24030808
21	907291	282.117862266	1.419218384
21	909377	282.629175306	0.51131304
21	911390	283.299984064	0.670808758
21	912179	283.568001814	0.26801775
21	913792	284.023826633	0.455824819
21	914428	284.196594235	0.172767602
21	917401	284.98621597	0.789621735
21	926213	287.012078745	2.025862775
21	929127	287.7721082	0.760029455
21	947802	292.802548206	5.030440006
21	950240	293.397343647	0.594795441
21	950703	293.559304969	0.161961322
21	957233	296.467613773	2.908308804
21	962131	298.022985799	1.555372026
21	966828	299.670697792	1.647711993
21	968413	300.202544057	0.531846265
21	969848	300.647230348	0.444686291
21	970034	300.728879574	0.081649226
21	972215	301.425262109	0.696382535
21	972739	301.602957265	0.177695156
21	973470	301.894936528	0.291979263
21	977660	303.354895197	1.459958669
21	978644	303.702847658	0.347952461
21	982192	304.826863725	1.124016067
21	983337	305.266352749	0.439489024
21	988292	307.211488776	1.945136027
21	988816	307.416192538	0.204703762
21	990480	308.149105169	0.732912631
21	994470	309.543647648	1.394542479
21	995624	309.853198579	0.309550931
21	996441	310.063963837	0.210765258
21	997652	310.37060937	0.306645533
21	998017	310.48170462	0.11109525
21	999859	311.111497936	0.629793316
21	1001137	311.457181074	0.345683138
21	1003668	312.530288116	1.073107042
21	1005796	313.391988017	0.861699901
21	1006614	313.698521109	0.306533092
21	1009176	314.681632562	0.983111453
21	1010403	314.9174745	0.235841938
21	1013314	316.060016117	1.142541617
21	1013914	316.26321374	0.203197623
21	1015355	316.703412382	0.440198642
21	1019902	318.082577023	1.379164641
21	1025156	319.629587249	1.547010226
21	1025770	319.82362869	0.194041441
21	1028867	320.786110223	0.962481533
21	1032180	321.561134838	0.775024615
21	1038302	322.790183312	1.229048474
21	1041227	323.681495412	0.8913121
21	1042321	323.957484486	0.275989074
21	1046896	325.213846726	1.25636224
21	1047509	325.429674663	0.215827937
21	1048055	325.644416183	0.21474152
21	1050051	326.454780157	0.810363974
21	1051467	326.794412611	0.339632454
21	1052008	326.936022753	0.141610142
21	1052032	326.947367827	0.011345074
21	1052519	327.128728998	0.181361171
21	1056622	328.605245757	1.476516759
21	1057372	328.855136872	0.249891115
21	1057557	328.913311367	0.058174495
21	1058763	329.292446436	0.379135069
21	1062531	330.703790803	1.411344367
21	1068987	333.344389612	2.640598809
21	1069038	333.364302904	0.019913292
21	1069865	333.682067371	0.317764467
21	1073748	334.792807841	1.11074047
21	1075662	335.422890243	0.630082402
21	1077077	335.960319362	0.537429119
21	1082705	337.79222672	1.831907358
21	1083530	338.026524691	0.234297971
21	1084085	338.264465806	0.237941115
21	1086802	339.238522504	0.974056698
21	1089340	340.026788891	0.788266387
21	1089644	340.127774615	0.100985724
21	1091080	340.505374277	0.377599662
21	1096125	342.228589278	1.723215001
21	1097364	342.685992977	0.457403699
21	1097469	342.695056382	0.009063405
21	1098543	342.941509463	0.246453081
21	1102673	344.312978012	1.371468549
21	1103010	344.415310874	0.102332862
21	1104470	344.997666946	0.582356072
21	1104831	345.120684726	0.12301778
21	1106738	345.677464316	0.55677959
21	1106950	345.756215917	0.078751601
21	1108312	346.36300691	0.606790993
21	1111354	347.809655515	1.446648605
21	1115429	349.131001586	1.321346071
21	1115499	349.15021266	0.019211074
21	1116928	349.704014088	0.553801428
21	1117140	349.81121081	0.107196722
21	1123301	351.88674129	2.07553048
21	1123417	351.920540193	0.033798903
21	1126504	352.998598347	1.078058154
21	1130978	354.675092092	1.676493745
21	1133743	355.54403854	0.868946448
21	1135467	356.222928033	0.678889493
21	1136865	356.837260833	0.6143328
21	1138419	357.418106606	0.580845773
21	1139863	357.932577102	0.514470496
21	1140654	358.274955395	0.342378293
21	1143782	359.189351566	0.914396171
21	1144325	359.370227816	0.18087625
21	1146393	360.099663151	0.729435335
21	1148663	360.965912668	0.866249517
21	1152420	362.345882216	1.379969548
21	1154622	363.226715556	0.88083334
21	1156591	363.768515827	0.541800271
21	1157725	364.044419022	0.275903195
21	1157886	364.076430932	0.03201191
21	1163009	365.401512596	1.325081664
21	1163940	365.725523097	0.324010501
21	1168588	367.073790867	1.34826777
21	1169412	367.329372425	0.255581558
21	1171532	367.892060323	0.562687898
21	1178714	369.869532436	1.977472113
21	1186854	371.805034642	1.935502206
21	1187921	372.10415687	0.299122228
21	1189920	372.728786243	0.624629373
21	1192318	373.60378147	0.874995227
21	1194429	374.273519136	0.669737666
21	1197566	374.994586562	0.721067426
21	1200292	375.804100839	0.809514277
21	1201591	376.142949576	0.338848737
21	1204801	377.025906718	0.882957142
21	1205242	377.191083754	0.165177036
21	1207151	377.563532822	0.372449068
21	1211048	378.681507606	1.117974784
21	1212352	378.953820956	0.27231335
21	1215653	379.703081297	0.749260341
21	1216407	379.8744168	0.171335503
21	1221349	381.283673138	1.409256338
21	1222478	381.673263647	0.389590509
21	1222981	381.853116698	0.179853051
21	1233671	384.341104538	2.48798784
21	1244374	387.098247381	2.757142843
21	1245693	387.364178945	0.265931564
21	1250990	388.766425341	1.402246396
21	1254714	389.645840474	0.879415133
21	1265327	392.197551093	2.551710619
21	1266880	392.679104763	0.48155367
21	1274501	394.577653116	1.898548353
21	1277478	395.483505313	0.905852197
21	1277588	395.530054121	0.046548808
21	1278580	395.840990533	0.310936412
21	1287963	398.400055669	2.559065136
21	1289905	398.850960443	0.450904774
21	1295713	400.497892428	1.646931985
21	1297859	401.161636973	0.663744545
21	1311363	404.861023753	3.69938678
21	1311689	404.918333141	0.057309388
21	1321491	407.712923326	2.794590185
21	1323431	408.411552958	0.698629632
21	1325307	408.977176172	0.565623214
21	1329797	410.039101918	1.061925746
21	1337526	412.583297055	2.544195137
21	1338932	412.997896058	0.414599003
21	1339877	413.250748138	0.25285208
21	1343921	414.451561343	1.200813205
21	1349557	416.774025509	2.322464166
21	1354595	418.103648964	1.329623455
21	1355468	418.212259269	0.108610305
21	1356537	418.441184047	0.228924778
21	1358192	418.821990299	0.380806252
21	1358665	418.921086048	0.099095749
21	1360766	419.629711666	0.708625618
21	1361725	419.93304133	0.303329664
21	1366126	421.61066612	1.67762479
21	1373013	423.864151748	2.253485628
21	1374174	424.393919044	0.529767296
21	1374769	424.681657631	0.287738587
21	1377420	425.73985398	1.058196349
21	1383222	427.842450925	2.102596945
21	1393042	430.900104192	3.057653267
21	1403242	434.229153318	3.329049126
21	1406913	435.475943735	1.246790417
21	1408329	436.014153334	0.538209599
21	1408470	436.05968474	0.045531406
21	1411336	437.105293262	1.045608522
21	1412776	437.741081621	0.635788359
21	1413239	437.978758194	0.237676573
21	1415307	438.603546007	0.624787813
21	1419528	439.760381719	1.156835712
21	1428848	442.243495436	2.483113717
21	1429462	442.375854872	0.132359436
21	1432220	443.368120737	0.992265865
21	1434685	443.866309462	0.498188725
21	1439341	445.158217432	1.29190797
21	1439725	445.293593551	0.135376119
21	1440165	445.481536667	0.187943116
21	1445359	447.129827595	1.648290928
21	1446343	447.324608107	0.194780512
21	1449210	447.817502295	0.492894188
21	1451140	448.340657625	0.52315533
21	1451984	448.61279561	0.272137985
21	1453622	449.109934564	0.497138954
21	1456075	450.039427007	0.929492443
21	1457295	450.391571473	0.352144466
21	1458886	450.864992724	0.473421251
21	1463505	452.128355532	1.263362808
21	1465522	452.713843043	0.585487511
21	1466063	452.896044503	0.18220146
21	1471173	454.128757764	1.232713261
21	1475521	455.433687745	1.304929981
21	1475616	455.492739561	0.059051816
21	1475871	455.652337099	0.159597538
21	1477114	456.144099859	0.49176276
21	1479945	457.067251322	0.923151463
21	1482406	457.826878656	0.759627334
21	1482621	457.864458466	0.03757981
21	1483488	458.05364604	0.189187574
21	1485506	458.613148638	0.559502598
21	1488175	459.315007758	0.70185912
21	1488299	459.360099222	0.045091464
21	1490274	459.855480791	0.495381569
21	1491158	460.209541069	0.354060278
21	1493115	461.018503596	0.808962527
21	1493210	461.044363688	0.025860092
21	1493232	461.054063142	0.009699454
21	1493558	461.157324027	0.103260885
21	1496050	461.848701717	0.69137769
21	1500919	463.39439421	1.545692493
21	1505996	464.783064018	1.388669808
21	1506106	464.820952477	0.037888459
21	1509174	465.884646018	1.063693541
21	1509543	466.022583646	0.137937628
21	1509582	466.032416056	0.00983241
21	1510048	466.199270318	0.166854262
21	1510176	466.247345835	0.048075517
21	1510641	466.455014025	0.20766819
21	1510812	466.520819506	0.065805481
21	1511464	466.810411535	0.289592029
21	1511565	466.856616852	0.046205317
21	1511868	466.96049436	0.103877508
21	1516141	468.451188293	1.490693933
21	1519641	469.854090788	1.402902495
21	1519915	470.007828244	0.153737456
21	1520564	470.149258408	0.141430164
21	1521995	470.651576375	0.502317967
21	1525023	471.662091263	1.010514888
21	1525688	471.930592407	0.268501144
21	1526978	472.48653158	0.555939173
21	1528010	472.93902022	0.45248864
21	1528528	473.158717938	0.219697718
21	1535669	475.475181448	2.31646351
21	1537207	475.971578753	0.496397305
21	1537924	476.218083512	0.246504759
21	1538835	476.627210282	0.40912677
21	1539576	476.95132081	0.324110528
21	1539953	477.135145642	0.183824832
21	1544895	478.873773675	1.738628033
21	1545590	479.091316435	0.21754276
21	1548354	480.247698858	1.156382423
21	1548523	480.319939419	0.072240561
21	1550006	480.863964941	0.544025522
21	1551489	481.332248526	0.468283585
21	1553539	482.074220089	0.741971563
21	1555516	482.803367529	0.72914744
21	1560031	484.066681348	1.263313819
21	1562171	484.623061467	0.556380119
21	1566802	486.072717228	1.449655761
21	1568467	486.359465934	0.286748706
21	1568841	486.461937744	0.10247181
21	1571865	487.298274141	0.836336397
21	1573281	487.622495685	0.324221544
21	1575362	488.12525859	0.502762905
21	1577410	488.661874083	0.536615493
21	1580009	489.214201769	0.552327686
21	1584103	490.618660635	1.404458866
21	1585783	491.091364401	0.472703766
21	1588432	491.800854723	0.709490322
21	1589387	492.159667916	0.358813193
21	1592380	493.164697667	1.005029751
21	1599278	494.980713344	1.816015677
21	1602556	495.960248876	0.979535532
21	1607569	497.680328731	1.720079855
21	1612726	499.007502176	1.327173445
21	1614376	499.482944409	0.475442233
21	1618887	500.475827961	0.992883552
21	1619068	500.546393169	0.070565208
21	1619678	500.756620562	0.210227393
21	1620289	500.976680011	0.220059449
21	1620684	501.1282919	0.151611889
21	1625071	502.378370094	1.250078194
21	1633633	504.841525239	2.463155145
21	1635961	505.36473911	0.523213871
21	1638063	506.04859166	0.68385255
21	1638277	506.113766922	0.065175262
21	1645623	508.429934343	2.316167421
21	1646752	508.816319932	0.386385589
21	1651136	510.059747128	1.243427196
21	1653159	510.621610402	0.561863274
21	1658324	512.082924764	1.461314362
21	1658833	512.25049725	0.167572486
21	1660457	512.730800957	0.480303707
21	1664404	513.756965097	1.02616414
21	1668035	514.616992869	0.860027772
21	1669223	514.845126779	0.22813391
21	1669680	514.983504754	0.138377975
21	1672054	515.706397636	0.722892882
21	1673551	516.133580708	0.427183072
21	1674204	516.346593753	0.213013045
21	1675144	516.654089866	0.307496113
21	1678723	517.665688876	1.01159901
21	1679934	518.052447824	0.386758948
21	1680203	518.13246306	0.080015236
21	1685723	519.686774062	1.554311002
21	1686373	519.941000174	0.254226112
21	1689867	521.253511773	1.312511599
21	1690888	521.677064462	0.423552689
21	1694399	522.729819988	1.052755526
21	1700634	524.761136839	2.031316851
21	1706736	526.046982018	1.285845179
21	1706744	526.048476562	0.001494544
21	1709270	526.954044626	0.905568064
21	1709298	526.959064133	0.005019507
21	1711315	527.598904494	0.639840361
21	1717490	529.58297656	1.984072066
21	1717861	529.691345065	0.108368505
21	1717935	529.714601605	0.02325654
21	1720101	530.451508181	0.736906576
21	1720256	530.504652032	0.053143851
21	1720466	530.587136784	0.082484752
21	1721035	530.727482615	0.140345831
21	1721608	530.883239006	0.155756391
21	1722706	531.25569409	0.372455084
21	1724487	531.810813957	0.555119867
21	1724728	531.90567109	0.094857133
21	1725313	532.166511819	0.260840729
21	1728396	533.427328159	1.26081634
21	1731058	534.116444991	0.689116832
21	1731449	534.272055734	0.155610743
21	1735673	535.828629868	1.556574134
21	1742836	538.133727453	2.305097585
21	1743331	538.274612159	0.140884706
21	1752067	540.740138404	2.465526245
21	1752837	541.074424034	0.33428563
21	1753771	541.485474282	0.411050248
21	1757463	543.054804947	1.569330665
21	1759812	544.041910001	0.987105054
21	1760955	544.737579877	0.695669876
21	1767697	547.681729853	2.944149976
21	1769831	548.643698206	0.961968353
21	1778951	551.675445243	3.031747037
21	1779702	551.908012194	0.232566951
21	1781082	552.371520761	0.463508567
21	1782850	553.048129926	0.676609165
21	1783445	553.258972751	0.210842825
21	1783740	553.401219037	0.142246286
21	1785412	553.951590501	0.550371464
21	1786035	554.257028464	0.305437963
21	1792692	556.78332899	2.526300526
21	1796806	557.997241948	1.213912958
21	1800021	559.094094169	1.096852221
21	1805476	561.105385115	2.011290946
21	1805930	561.272360073	0.166974958
21	1807477	561.906193919	0.633833846
21	1814621	564.257686181	2.351492262
21	1816931	564.616453664	0.358767483
21	1819834	565.800820266	1.184366602
21	1820191	565.903864333	0.103044067
21	1820220	565.917190987	0.013326654
21	1821852	566.648945757	0.73175477
21	1823401	567.243798027	0.59485227
21	1824566	567.665493177	0.42169515
21	1824599	567.678279422	0.012786245
21	1827383	568.478327413	0.800047991
21	1830142	569.40878199	0.930454577
21	1835634	571.254885508	1.846103518
21	1839140	572.535419854	1.280534346
21	1842259	573.855394938	1.319975084
21	1842449	573.914209036	0.058814098
21	1842678	573.980829602	0.066620566
21	1843776	574.350615031	0.369785429
21	1846861	575.271529096	0.920914065
21	1847373	575.407734542	0.136205446
21	1847384	575.412242373	0.004507831
21	1847436	575.435831497	0.023589124
21	1849245	576.080932122	0.645100625
21	1854830	577.852521852	1.77158973
21	1857172	578.618152167	0.765630315
21	1860635	579.78089076	1.162738593
21	1860718	579.832899155	0.052008395
21	1863533	580.601255796	0.768356641
21	1865552	581.127023972	0.525768176
21	1869196	582.125457194	0.998433222
21	1877092	584.696027075	2.570569881
21	1881604	586.602135005	1.90610793
21	1886479	588.39808042	1.795945415
21	1888249	588.910836244	0.512755824
21	1889222	589.198410657	0.287574413
21	1889569	589.38051346	0.182102803
21	1889868	589.50313399	0.12262053
21	1892969	590.75436571	1.25123172
21	1897389	592.165913986	1.411548276
21	1899257	592.86208242	0.696168434
21	1904261	594.613430069	1.751347649
21	1904886	594.746523554	0.133093485
21	1907640	595.414003796	0.667480242
21	1907912	595.495175161	0.081171365
21	1911497	596.862297978	1.367122817
21	1913731	597.781336831	0.919038853
21	1915215	598.18305791	0.401721079
21	1918147	598.807997465	0.624939555
21	1919802	599.115109606	0.307112141
21	1923554	600.441174151	1.326064545
21	1926145	601.384882321	0.94370817
21	1926692	601.589456713	0.204574392
21	1926881	601.665294245	0.075837532
21	1930390	602.894140902	1.228846657
21	1931309	603.147066559	0.252925657
21	1931979	603.318768277	0.171701718
21	1932059	603.345684743	0.026916466
21	1936620	604.938366228	1.592681485
21	1937224	605.211123734	0.272757506
21	1938792	605.812554307	0.601430573
21	1949142	608.705169499	2.892615192
21	1949593	608.848139817	0.142970318
21	1953791	609.888122696	1.039982879
21	1961293	611.684263588	1.796140892
21	1965043	612.908335923	1.224072335
21	1967450	613.721376471	0.813040548
21	1969644	614.371228971	0.6498525
21	1971745	614.896643955	0.525414984
21	1974193	615.606480153	0.709836198
21	1979980	617.500185986	1.893705833
21	1982681	618.380288478	0.880102492
21	1985342	619.087409768	0.70712129
21	1987900	620.009511564	0.922101796
21	1989585	620.526833876	0.517322312
21	1991306	620.978801134	0.451967258
21	2001083	623.987950372	3.009149238
21	2002467	624.385028614	0.397078242
21	2003697	624.752442261	0.367413647
21	2003807	624.792737992	0.040295731
21	2007649	626.039844199	1.247106207
21	2016039	628.380381205	2.340537006
21	2018188	628.925277649	0.544896444
21	2019355	629.309476394	0.384198745
21	2019888	629.473487604	0.16401121
21	2027048	631.575689116	2.102201512
21	2027350	631.63906508	0.063375964
21	2029866	632.281583946	0.642518866
21	2037588	634.837666988	2.556083042
21	2037685	634.864965656	0.027298668
21	2040217	635.755857251	0.890891595
21	2042431	636.399215834	0.643358583
21	2042895	636.600828107	0.201612273
21	2044185	636.918646001	0.317817894
21	2044861	637.110478108	0.191832107
21	2046838	637.593395136	0.482917028
21	2047753	637.881018458	0.287623322
21	2049211	638.427355324	0.546336866
21	2053721	639.992202411	1.564847087
21	2053777	640.016951672	0.024749261
21	2055257	640.533021702	0.51607003
21	2059857	642.126701554	1.593679852
21	2070665	645.142641998	3.015940444
21	2071958	645.55930144	0.416659442
21	2080401	648.154047317	2.594745877
21	2084335	649.175884032	1.021836715
21	2085191	649.414286948	0.238402916
21	2087150	649.924939696	0.510652748
21	2089972	650.819551913	0.894612217
21	2090895	651.095608951	0.276057038
21	2093480	651.698615591	0.60300664
21	2094716	652.220524214	0.521908623
21	2101647	655.042146797	2.821622583
21	2103456	655.717537505	0.675390708
21	2106277	656.501103813	0.783566308
21	2106510	656.596693185	0.095589372
21	2106650	656.649269738	0.052576553
21	2107783	657.091777614	0.442507876
21	2116736	659.562287447	2.470509833
21	2121959	661.385556817	1.82326937
21	2122466	661.587233838	0.201677021
21	2128455	663.796737265	2.209503427
21	2128729	663.891492543	0.094755278
21	2130311	664.645250679	0.753758136
21	2130683	664.828890318	0.183639639
21	2136378	667.232182505	2.403292187
21	2137427	667.468868845	0.23668634
21	2142110	668.899823583	1.430954738
21	2142897	669.084424244	0.184600661
21	2143024	669.13757043	0.053146186
21	2152585	672.791837749	3.654267319
21	2153371	673.06417898	0.272341231
21	2154392	673.340360804	0.276181824
21	2155277	673.685591746	0.345230942
21	2157076	674.241168657	0.555576911
21	2158464	674.741570602	0.500401945
21	2159776	675.150436811	0.408866209
21	2160694	675.40570113	0.255264319
21	2163990	676.265199588	0.859498458
21	2166191	676.845486551	0.580286963
21	2168149	677.36154671	0.516060159
21	2169647	677.713020194	0.351473484
21	2175447	679.100330402	1.387310208
21	2177073	679.454111306	0.353780904
21	2180461	680.673238437	1.219127131
21	2180842	680.837264554	0.164026117
21	2181023	680.909189151	0.071924597
21	2183620	681.856181232	0.946992081
21	2184500	682.084082838	0.227901606
21	2190099	683.792876275	1.708793437
21	2190819	684.108025061	0.315148786
21	2191648	684.479127811	0.37110275
21	2199940	687.47428497	2.995157159
21	2204206	688.733010922	1.258725952
21	2204626	688.85162204	0.118611118
21	2207010	689.699168426	0.847546386
21	2213483	692.108533261	2.409364835
21	2216782	693.246247972	1.137714711
21	2217839	693.806517615	0.560269643
21	2220451	694.784122952	0.977605337
21	2222410	695.331805886	0.547682934
21	2222549	695.400423748	0.068617862
21	2224825	696.104097367	0.703673619
21	2226226	696.668199464	0.564102097
21	2229675	697.756967405	1.088767941
21	2232004	698.633741107	0.876773702
21	2232383	698.783636116	0.149895009
21	2239091	700.56954506	1.785908944
21	2239948	700.878704499	0.309159439
21	2240571	701.102741556	0.224037057
21	2245016	702.666935311	1.564193755
21	2246610	703.14148829	0.474552979
21	2252548	704.913974938	1.772486648
21	2252918	705.087700264	0.173725326
21	2254291	705.635179287	0.547479023
21	2255226	705.885386228	0.250206941
21	2256204	706.256739938	0.37135371
21	2256413	706.35772924	0.100989302
21	2259212	707.451532882	1.093803642
21	2260852	708.058629631	0.607096749
21	2261738	708.428217834	0.369588203
21	2262621	708.876899749	0.448681915
21	2264687	709.771952793	0.895053044
21	2265125	709.953712873	0.18176008
21	2266076	710.289227817	0.335514944
21	2268022	710.919885215	0.630657398
21	2268410	711.027100187	0.107214972
21	2268679	711.096926009	0.069825822
21	2269385	711.31684666	0.219920651
21	2269439	711.336256189	0.019409529
21	2270150	711.602569587	0.266313398
21	2270197	711.608809963	0.006240376
21	2277703	713.20476221	1.595952247
21	2279918	714.00438174	0.79961953
21	2283201	714.948552954	0.944171214
21	2287646	716.364624382	1.416071428
21	2287943	716.483345641	0.118721259
21	2288428	716.666597985	0.183252344
21	2289002	716.880934068	0.214336083