version 2
run ChordDht-9-20211202-15:57:50-10332
attr Lifetime 1000s
attr configname ChordDht
attr datetime 20211202-15:57:50
attr experiment ChordDht
attr inifile configs.ini
attr iterationvars $Lifetime=1000s
attr iterationvars2 "$Lifetime=1000s, $repetition=0"
attr measurement $Lifetime=1000s
attr network oversim.underlay.simpleunderlay.SimpleUnderlayNetwork
attr processid 10332
attr repetition 0
attr replication #0
attr resultdir results
attr runnumber 9
attr seedset 9

vector 55  SimpleUnderlayNetwork.globalObserver.globalStatistics  "GlobalNodeList: Number of nodes"  ETV
vector 56  SimpleUnderlayNetwork.globalObserver.globalStatistics  "GlobalDhtTestMap: Number of stored DHT entries"  ETV
vector 57  SimpleUnderlayNetwork.globalObserver.globalStatistics  "LifetimeChurn: Session Time"  ETV
vector 58  SimpleUnderlayNetwork.globalObserver.globalStatistics  "LifetimeChurn: Time between creates"  ETV
vector 59  SimpleUnderlayNetwork.globalObserver.globalStatistics  "LifetimeChurn: Time between deletes"  ETV
55	494954	150	509
55	696429	200	518
55	864170	250	507
55	1095507	300	513
55	1257999	350	510
55	1478584	400	505
55	1671299	450	509
55	1855173	500	499
55	2074965	550	497
55	2245380	600	500
55	2474644	650	495
55	2659289	700	499
55	2870463	750	507
55	3077667	800	505
55	3260575	850	506
55	3490182	900	501
55	3674215	950	510
55	3897755	1000	508
55	4108811	1050	520
55	4306662	1100	515
56	494955	150	759
56	545214	160	850
56	595959	170	940
56	631277	180	990
56	666799	190	1066
56	696430	200	1152
56	727753	210	1244
56	757287	220	1341
56	790096	230	1416
56	819356	240	1482
56	864171	250	1558
56	911607	260	1646
56	964896	270	1735
56	1011746	280	1823
56	1058056	290	1899
56	1095508	300	1960
56	1129672	310	2045
56	1164137	320	2134
56	1197612	330	2240
56	1228691	340	2315
56	1258000	350	2378
56	1288973	360	2439
56	1334126	370	2454
56	1380031	380	2433
56	1433628	390	2431
56	1478585	400	2420
56	1526040	410	2420
56	1563604	420	2451
56	1598287	430	2448
56	1632784	440	2453
56	1671300	450	2453
56	1705188	460	2431
56	1736585	470	2403
56	1769853	480	2439
56	1811783	490	2436
56	1855174	500	2438
56	1907393	510	2439
56	1952106	520	2426
56	2002691	530	2418
56	2039289	540	2421
56	2074966	550	2417
56	2110479	560	2420
56	2147784	570	2413
56	2179726	580	2413
56	2212992	590	2410
56	2245381	600	2417
56	2287599	610	2415
56	2331540	620	2420
56	2383332	630	2401
56	2430406	640	2394
56	2474645	650	2406
56	2512554	660	2409
56	2549275	670	2407
56	2587400	680	2409
56	2622209	690	2404
56	2659290	700	2401
56	2690907	710	2384
56	2725535	720	2387
56	2765444	730	2390
56	2817109	740	2388
56	2870464	750	2367
56	2919937	760	2376
56	2966042	770	2388
56	3004297	780	2394
56	3039227	790	2390
56	3077668	800	2389
56	3115554	810	2384
56	3148078	820	2378
56	3182397	830	2392
56	3217414	840	2394
56	3260576	850	2414
56	3307506	860	2403
56	3362767	870	2402
56	3405172	880	2400
56	3451865	890	2396
56	3490183	900	2407
56	3528123	910	2421
56	3565483	920	2410
56	3601961	930	2399
56	3638197	940	2408
56	3674216	950	2413
56	3710320	960	2417
56	3754329	970	2431
56	3799576	980	2421
56	3851180	990	2424
56	3897756	1000	2401
56	3946513	1010	2426
56	3986616	1020	2423
56	4026654	1030	2441
56	4068975	1040	2433
56	4108812	1050	2441
56	4145420	1060	2433
56	4183669	1070	2444
56	4223049	1080	2440
56	4263034	1090	2454
56	4306663	1100	2456
56	4353643	1110	2449
56	4399585	1120	2448
56	4445799	1130	2456
56	4480682	1140	2443
57	495969	150.22123188	595.976850781
57	504616	152.044023017	631.81030642
57	516501	154.369776877	758.945401508
57	517809	154.624835938	418.084683971
57	518662	154.84740435	2074.419760629
57	525197	156.122826277	950.283169781
57	527862	156.573806329	2971.057628472
57	534464	157.908986566	1921.915396945
57	547884	160.506631778	2930.184632931
57	556403	162.281874854	250.94806467
57	573689	165.759412096	1550.812462215
57	573956	165.830015361	727.55072791
57	587581	168.435752958	242.323791707
57	600390	171.005550053	680.084610187
57	601258	171.213445822	150.349573021
57	601358	171.237374041	1000.138194063
57	607659	172.903824144	1776.363816718
57	609381	173.493726454	806.491726192
57	619014	176.489086759	5.857084586
57	621944	177.232145565	2521.74750577
57	625183	178.470468478	2032.611548745
57	637087	181.951068402	254.884217574
57	643431	183.928617164	436.040102282
57	645775	184.371271856	127.502778464
57	656070	187.310684933	352.782922145
57	656267	187.374505637	177.460649643
57	659086	188.048154125	2024.380919288
57	660793	188.423346097	679.809766456
57	665089	189.454403009	1370.238012991
57	669702	190.98754306	61.006678927
57	673421	191.913498091	350.004714596
57	679021	194.000652043	426.378042235
57	682785	195.517390299	850.408945068
57	685021	196.274764614	2848.09239943
57	687330	196.961754218	21.20871561
57	705564	203.636572231	961.505083697
57	705633	203.669814771	943.517415175
57	732895	212.002007513	282.891475281
57	738493	214.037582796	17.468166653
57	750096	217.649046102	149.508157427
57	758871	220.669055424	961.478277753
57	760399	221.341976105	2620.47674494
57	761093	221.627853074	319.149977781
57	765610	223.108660565	1712.819028438
57	778103	226.66752929	161.351533686
57	783627	228.073430214	403.049016726
57	788726	229.473009496	243.677322892
57	796051	231.650262171	224.441476705
57	803682	234.155161202	4338.037186735
57	818824	239.76375068	379.522834688
57	826379	241.951372153	1030.449983274
57	828124	242.354801669	417.331991652
57	839714	244.841495857	42.724249358
57	840927	245.124857364	564.34871609
57	842629	245.47650868	213.894543075
57	867897	250.889813131	313.326868933
57	869123	251.150550613	140.61016436
57	875053	252.283825359	2467.716856827
57	882044	253.735926601	10.039895226
57	883480	254.033775322	1448.457114734
57	889439	255.232033139	3943.026194928
57	895604	256.263092797	2059.054109361
57	895917	256.32462396	2127.733098088
57	901506	257.588952555	235.345119074
57	913465	260.431414622	20.337294643
57	913967	260.54472671	913.306626063
57	918401	261.318130618	44.52683166
57	921905	261.955164519	797.218222532
57	926310	262.773824874	256.123105909
57	938675	265.018466243	1291.344106075
57	942678	265.751557322	536.920864516
57	962259	269.449944561	82.116327654
57	981060	273.612923197	137.050474198
57	987935	274.870605243	1212.340566077
57	996472	276.5368572	427.812291722
57	1005484	278.679937187	563.085877241
57	1009862	279.452023585	83.635437768
57	1021399	282.435355584	98.634891072
57	1030278	284.555068372	170.645112087
57	1031806	284.912969251	560.224742148
57	1061624	290.712337528	499.783500152
57	1062699	290.877895221	2326.009098961
57	1065297	291.569431358	1100.548841569
57	1068869	292.513336826	608.066489291
57	1078360	295.135224503	1346.52295184
57	1078819	295.287705048	322.295830954
57	1082964	296.615210905	13.411544927
57	1085698	297.468837936	2568.055511941
57	1093169	299.317178223	2007.25917833
57	1103426	302.275731127	694.373266954
57	1113358	305.517741613	883.08418267
57	1127783	309.370986784	1964.890983576
57	1128883	309.754100993	279.501414992
57	1132413	310.692689431	237.563850762
57	1141682	313.409010641	6.114299775
57	1145165	314.239408941	1278.519145812
57	1148721	315.292103687	206.188081595
57	1149886	315.605993604	733.539971189
57	1158901	318.616654862	403.529846812
57	1159622	318.810831375	1791.221477161
57	1168211	321.320711283	206.713999103
57	1168937	321.657648987	505.352071032
57	1168965	321.662685148	1843.286889537
57	1169482	321.912484843	162.122693713
57	1198037	330.194349287	1489.98439419
57	1205651	332.580024778	416.111774843
57	1212061	334.718108665	131.72547723
57	1215161	335.817122897	1025.973633636
57	1220852	337.675739626	284.146155973
57	1229023	340.16095662	1296.136501381
57	1236007	342.866586664	454.726776821
57	1252959	348.431975651	60.366554695
57	1258675	350.208547833	439.476547867
57	1265261	351.816257788	5810.427323753
57	1266426	352.090560382	1097.428163537
57	1268903	352.750886102	281.706631711
57	1281427	357.408708687	7.890122617
57	1312737	365.587597501	845.084056514
57	1313556	365.815168557	296.481410579
57	1316761	366.505417879	222.554288519
57	1326989	368.61897276	1575.241523984
57	1361399	376.106884177	219.497105306
57	1363169	376.435816083	39.531202903
57	1375582	378.845833803	982.333340779
57	1375641	378.85678679	66.308721486
57	1385579	380.958471907	898.704424278
57	1388783	381.511939094	1971.346440134
57	1402161	383.834890524	4978.777123873
57	1411626	385.68025269	136.246393339
57	1426094	388.435451464	312.751395666
57	1436510	390.694085615	416.53511183
57	1441961	391.960780497	435.389177703
57	1498773	405.021086739	1186.095211035
57	1502625	405.703609069	1075.229981279
57	1505860	406.395002347	1173.217734401
57	1509050	406.871895548	1292.253796597
57	1511061	407.152428746	1046.46843702
57	1523489	409.427944383	124.447179412
57	1529059	410.440086474	144.942242913
57	1533982	411.734182237	2297.644997349
57	1544234	414.667237475	2309.698254303
57	1550942	416.66004537	25.419162174
57	1551637	416.779896354	1096.644520193
57	1552205	416.919613527	968.85359001
57	1573206	423.073910484	923.416306718
57	1584128	426.264905245	1022.303811485
57	1585609	426.662814774	1295.378032522
57	1594157	428.590599217	856.701500197
57	1594378	428.672165017	1123.363677123
57	1604969	431.953353837	809.234581044
57	1605116	431.995852917	149.111895105
57	1606139	432.326812917	35.090700897
57	1611620	433.791557163	2295.600003551
57	1615601	435.302661036	535.026666345
57	1620458	436.586438933	286.083613535
57	1620847	436.696679133	12.57804889
57	1622512	437.241782231	1237.474993785
57	1630948	439.356884304	1926.923125362
57	1639132	441.692895977	335.228725237
57	1640417	442.069570095	877.80979775
57	1643726	442.945279224	545.246234107
57	1648714	444.078337231	775.423439456
57	1649239	444.208847378	685.151903685
57	1661991	447.561554991	103.714559878
57	1672877	450.64695944	39.64958164
57	1681612	453.087488444	865.241956289
57	1682245	453.236486702	419.977119653
57	1692708	456.666566769	1220.099943748
57	1699558	458.647169317	2006.635830501
57	1708403	461.456555635	822.673167233
57	1712551	462.821539193	782.899352678
57	1713146	462.973746179	4165.455107835
57	1716523	463.834984941	3039.319766575
57	1726693	466.768012901	2125.33352516
57	1732717	468.61014013	3322.575372352
57	1736072	469.77485732	1630.876256005
57	1764662	478.403458589	1081.161003872
57	1779995	482.897769897	917.349775143
57	1782994	483.652012925	4407.169902632
57	1787200	484.518817804	242.667000487
57	1794606	486.189693931	611.626876421
57	1796214	486.513330675	28.435508518
57	1806819	488.972318413	2287.766475612
57	1810346	489.632886848	5187.702961687
57	1830926	494.61356345	1379.886158476
57	1833902	495.448174531	2395.770022713
57	1843210	497.172705648	1848.158594898
57	1852989	499.310578319	821.879794331
57	1862214	501.249607258	29.13056181
57	1890122	506.914922178	1338.41252753
57	1891170	507.079511164	1414.171403326
57	1904589	509.344455157	374.17560462
57	1909419	510.593732695	1069.501130249
57	1909695	510.686642466	27.991688145
57	1910629	510.947223677	2518.559329283
57	1917701	512.432837049	1568.082130191
57	1931627	515.54278964	364.879925286
57	1940805	517.543450231	171.548765508
57	1941252	517.625681283	1781.043193735
57	1951343	519.77077803	332.439837021
57	1960490	521.551913831	1625.831039248
57	1965095	522.654683174	123.261572175
57	1967746	523.31028564	557.198254746
57	1979786	525.909874523	1080.007880802
57	1989229	527.779885789	1316.677566685
57	1990727	527.981465673	2865.546084608
57	1999674	529.342327965	160.109828659
57	2002127	529.862938517	851.437308471
57	2012870	532.057005803	1872.767953257
57	2013270	532.158816731	2015.10985864
57	2017286	533.139770206	1067.523488083
57	2029024	536.506206479	1215.820405295
57	2035881	538.971590469	37.64047529
57	2041701	540.576544147	164.869795219
57	2059542	546.392406607	450.261787094
57	2061577	546.976985179	342.459055089
57	2062624	547.177919952	343.428001036
57	2064494	547.715109733	657.571577635
57	2075773	550.232146972	416.799765037
57	2082707	552.038266537	53.753869406
57	2087371	553.335426335	1270.163554521
57	2089462	553.992112807	87.804040668
57	2091436	554.586633129	408.992739458
57	2093474	555.120979529	207.33370701
57	2113394	560.830724167	755.968722983
57	2122437	563.353284432	657.138002161
57	2129763	565.334476292	119.917496743
57	2132192	565.999475522	819.728219414
57	2137825	567.41564426	1550.283948565
57	2160339	573.661790589	966.311060495
57	2160458	573.698874734	1085.567405246
57	2165831	575.374260459	1616.420469833
57	2180610	580.331878664	38.214210121
57	2197922	586.130827596	24.06935489
57	2201444	587.340540356	529.803851398
57	2204245	588.178693648	1096.966466624
57	2207049	588.801394383	1287.499514987
57	2225450	593.589276301	417.441380673
57	2229062	595.085933881	2108.343419335
57	2233271	596.111838569	149.583170286
57	2242869	599.316670514	620.977998417
57	2253805	602.339016425	152.71140457
57	2255048	602.668679962	19.435597778
57	2260263	603.911087576	54.751800811
57	2292945	611.357898075	729.181371717
57	2303879	613.687405694	469.519216709
57	2307834	614.498543175	554.198357859
57	2308724	614.748601804	1832.528227507
57	2320230	617.262354927	1985.860856539
57	2321612	617.62339774	955.886805448
57	2336419	621.116306675	110.482632095
57	2349478	624.000928273	331.57923653
57	2357094	625.638840385	145.051813901
57	2361981	626.523880366	885.434659208
57	2373514	628.340575222	120.230553752
57	2390174	631.683833945	2273.052145433
57	2422451	638.398432986	1023.239103187
57	2429182	639.71262877	300.674674972
57	2439975	642.450297597	1437.566145912
57	2465675	648.227613146	717.454769843
57	2478631	650.847557727	1091.482758224
57	2480039	651.172861968	863.645256751
57	2480100	651.185164334	106.112217728
57	2495404	655.117225397	233.81320923
57	2495803	655.228674155	583.569652826
57	2496787	655.448697314	358.186140358
57	2512799	660.080743804	170.683587345
57	2513295	660.216363082	132.86177641
57	2550499	670.26687866	803.583772682
57	2561522	672.855007147	398.415579517
57	2566827	674.588132066	1630.251908607
57	2568749	675.044547874	666.452230242
57	2574288	676.301513545	1328.754512383
57	2581358	678.470492785	485.286220633
57	2586653	679.788724571	1602.779601494
57	2603714	684.459343183	1983.258655312
57	2622191	689.999532928	19.74393855
57	2624626	690.813451202	184.036506348
57	2625440	691.093114008	939.801260428
57	2637793	694.198332235	855.382200957
57	2639289	694.644656078	875.247321299
57	2648868	696.501130168	22.532308961
57	2652247	697.590658218	2402.142588761
57	2654286	698.420599269	2254.422482498
57	2670006	703.926373343	1085.802375857
57	2675422	705.838097921	2380.422146736
57	2677659	706.523830666	481.049987751
57	2690509	709.834990805	1689.928856034
57	2691107	710.07661528	61.281545701
57	2703274	713.72982434	255.80214243
57	2703715	713.858195188	80.5931685
57	2706871	714.848292754	2122.318637505
57	2708223	715.286264103	836.782076783
57	2712219	716.256243644	196.598451939
57	2738102	723.706213294	377.799903508
57	2744600	725.267322328	2909.874190074
57	2764026	729.698416652	1587.999594075
57	2764693	729.846756203	802.847446203
57	2765407	729.996069138	2056.837157457
57	2778143	732.186343073	503.554514166
57	2786777	734.024242167	634.79824686
57	2787687	734.186494866	388.622790899
57	2789475	734.576273787	622.460350363
57	2795969	735.843369957	1202.327219688
57	2803115	737.216160682	337.477333751
57	2808181	738.22081178	1033.001394962
57	2809836	738.591822011	4358.623921845
57	2817842	740.131976086	98.456166967
57	2823899	741.630978858	875.036031786
57	2825656	742.099939523	4120.47543807
57	2830762	743.232881741	469.33055876
57	2831414	743.363039725	30.329462293
57	2840728	744.984959127	287.379294412
57	2843366	745.408373912	1097.562808752
57	2847815	746.18465462	31.062237522
57	2848118	746.239582482	583.826854783
57	2851071	746.819795436	2157.957442376
57	2868685	749.628476685	3624.843058418
57	2872070	750.465388776	8.855978145
57	2877401	751.642393804	314.613232491
57	2889286	753.809433196	1354.120755763
57	2894481	754.759287916	211.940813177
57	2903573	756.427406155	1346.724958872
57	2911329	758.080060745	831.06436197
57	2925546	761.260777181	1113.995091182
57	2939501	764.585820121	1421.517085076
57	2942688	765.47512627	2635.941700675
57	2943395	765.644950928	116.615831319
57	2948108	766.721156824	840.297976467
57	2986429	775.405048867	1178.977390049
57	2991036	776.582657219	456.955574638
57	2998291	778.598687746	492.097588736
57	2998636	778.691946461	173.193328733
57	3002519	779.594361116	39.709709094
57	3011315	781.494298304	922.362491895
57	3011608	781.590944343	1889.95375961
57	3012492	781.90286386	868.161445382
57	3021757	785.219730025	193.660409151
57	3028045	787.072534572	839.517909917
57	3045496	791.578937411	644.590551239
57	3060322	795.703674017	1560.528656007
57	3062146	796.100136567	801.356489055
57	3063875	796.473026599	1247.448721774
57	3074226	798.759624404	970.386168225
57	3080284	800.746290615	824.038227168
57	3089397	803.123940469	678.727220161
57	3111171	808.637459009	1218.575596417
57	3112755	809.010337188	938.109769182
57	3114022	809.427108436	2276.046234704
57	3126178	813.226123991	1316.581778843
57	3138536	817.121701804	214.697610485
57	3145757	819.356550838	729.158344468
57	3148906	820.29357751	170.865005444
57	3152144	821.538191611	4520.233638771
57	3159835	823.97898701	270.693392374
57	3165974	825.884655987	592.921223304
57	3179599	829.40121603	1441.885241706
57	3185766	830.753621401	2785.442741492
57	3196307	833.150843612	3961.863274973
57	3196957	833.322940768	307.914596968
57	3207250	836.611256189	3356.936899133
57	3217318	839.976423105	228.76531585
57	3228191	843.126826596	44.135698856
57	3230039	843.600813179	39.499834089
57	3238115	845.181231794	3783.527851163
57	3251797	848.218386082	474.869174131
57	3280484	854.378484149	988.582904236
57	3281829	854.706348357	921.49534338
57	3283642	855.150767423	335.679236915
57	3289624	856.133072247	50.090849137
57	3297534	857.889499798	288.654719427
57	3303991	859.196434461	1672.645797441
57	3305030	859.407252992	28.154670062
57	3306580	859.737160424	783.19404924
57	3321174	862.219625818	717.572045911
57	3323792	862.644578427	318.283979886
57	3337735	865.545903015	619.112765272
57	3355838	868.681469464	637.362857502
57	3392913	877.259759602	221.406686358
57	3396568	878.152421653	747.688934494
57	3406111	880.231428744	761.342240806
57	3414726	882.371139469	442.056627133
57	3416199	882.714149633	78.747142628
57	3427785	885.148367822	1408.426261733
57	3432917	886.328027257	85.027433081
57	3479287	896.877054684	116.792037177
57	3484090	898.425278109	213.447608815
57	3488877	899.762227726	184.687316648
57	3495646	901.401758133	704.246903741
57	3508389	904.829365438	1044.257619631
57	3514950	906.787864995	2512.428594133
57	3523313	908.638011779	823.725286773
57	3528957	910.209949829	302.500337397
57	3535245	911.728140471	16.602362692
57	3550179	915.99783998	2211.318918045
57	3570631	921.521111376	148.919181635
57	3576548	923.359327992	1551.649106229
57	3582346	924.700964106	47.641037019
57	3583987	925.140605959	1604.376242589
57	3589986	926.873907587	2994.551950008
57	3601758	929.93789893	423.582255662
57	3614338	933.197537386	1490.24637104
57	3617116	934.180981126	78.317122676
57	3617583	934.305236224	5776.301316519
57	3628059	936.777582942	711.691199372
57	3629492	937.214151327	1110.530660819
57	3638636	940.137343276	1331.652255004
57	3642681	941.35002492	623.1293592
57	3651044	943.969775928	3562.667365481
57	3656607	945.585595164	393.864120811
57	3657637	945.879682253	1780.796752637
57	3667314	948.139413211	570.817846151
57	3671020	949.183318286	193.224043872
57	3686943	953.475571441	486.948742088
57	3696263	956.472345505	2979.920698094
57	3699447	957.311081065	356.412543042
57	3700669	957.730999622	1326.335283551
57	3702977	958.472011096	1198.546136972
57	3704783	958.889035684	1161.290615617
57	3738236	966.842019272	1206.104589668
57	3755107	970.250069	1027.301015829
57	3755397	970.348228523	2680.809444026
57	3761313	971.930460334	1019.16913927
57	3762746	972.271318325	995.973795425
57	3765466	973.001959081	84.968061561
57	3771674	974.315917248	367.483625917
57	3774876	975.000299904	953.278672813
57	3798155	979.644216421	371.332264738
57	3803269	980.802799082	1445.494203334
57	3806080	981.38985845	702.369329737
57	3814240	983.230433987	421.867009713
57	3819910	984.563467752	1500.28495985
57	3847473	989.29637047	2370.472681429
57	3855911	990.976567049	1763.034900498
57	3857891	991.470839231	397.243185571
57	3862954	992.318642668	2342.568238779
57	3866986	992.988323611	174.436767174
57	3869322	993.496535293	352.0505699
57	3895259	999.492343866	811.140992361
57	3905279	1001.717843716	3145.439399478
57	3906394	1002.001180253	989.45221174
57	3908573	1002.604583026	421.235901509
57	3917411	1004.116006383	1887.430402011
57	3917505	1004.13138616	2038.504507275
57	3922192	1004.890577181	336.581985178
57	3924600	1005.342783193	137.522525451
57	3960720	1013.858848871	795.392299178
57	3966731	1015.1716923	4243.642879442
57	3972783	1017.00775665	2062.944638431
57	3974099	1017.4224136	2058.128406455
57	3975689	1017.91051946	1142.501443388
57	3978109	1018.403024712	333.968389559
57	3999346	1023.979707368	391.462712774
57	4018635	1028.188658601	2399.300270501
57	4028003	1030.362469476	428.192881626
57	4033360	1031.476160285	440.830455802
57	4034023	1031.634884004	1981.23264525
57	4035161	1031.86085936	886.585146309
57	4039116	1032.86537087	4239.756377664
57	4039669	1032.981258098	334.346105702
57	4044386	1033.898485067	732.692475868
57	4045527	1034.175911859	90.000505574
57	4063982	1038.598558456	1247.860377747
57	4070027	1040.330986347	829.46502166
57	4079931	1043.557108743	448.881183814
57	4086895	1045.098698702	745.596022325
57	4107362	1049.475644111	3409.69070604
57	4132340	1056.57442633	341.18139656
57	4134185	1057.046857963	1308.696547209
57	4135792	1057.557516488	344.107543323
57	4136423	1057.763445593	328.821264016
57	4146609	1060.315240501	1522.347475918
57	4149421	1061.175322608	226.422101917
57	4151346	1061.733415378	895.304708744
57	4172364	1067.196497649	727.213817681
57	4179988	1069.129417622	31.81510514
57	4181274	1069.389963728	801.105589816
57	4185357	1070.452625485	1742.229356787
57	4186534	1070.786282641	878.546699062
57	4201671	1074.141521245	137.125571789
57	4206193	1075.398225917	2729.17185099
57	4208981	1076.144139035	699.637334083
57	4252822	1088.201214171	1335.897168622
57	4255039	1088.630349602	2542.201017915
57	4266263	1090.815325335	61.951596792
57	4271281	1092.032674242	1263.472855864
57	4305261	1099.560458193	666.939247824
57	4306605	1099.987486244	158.731103435
57	4318356	1103.001043668	3451.857290874
57	4325888	1104.755024921	966.106483542
57	4332708	1106.176534165	63.442979627
57	4338887	1107.303499775	602.467970005
57	4343105	1107.814498554	309.351337454
57	4343221	1107.829400869	579.646537483
57	4358434	1111.148447575	606.591414616
57	4359869	1111.534099132	101.749589516
57	4362957	1112.251716354	893.187946892
57	4378047	1115.010723808	710.50276299
57	4394647	1119.123300083	484.004441304
57	4420613	1125.112388908	1898.225662
57	4433829	1127.711660085	1075.134082402
57	4435589	1128.133847935	326.463963082
57	4453558	1131.871829448	92.889717133
57	4482235	1140.790882011	1359.829639513
57	4483092	1141.365412884	861.116469482
57	4483568	1141.638984529	280.46294437
57	4485909	1142.42476101	660.985430351
57	4486220	1142.517700551	808.68850067
57	4488869	1143.545017875	422.742080599
57	4492193	1144.629053206	77.723534518
58	495969	150.22123188	0.981113835
58	504616	152.044023017	1.822791137
58	516501	154.369776877	2.32575386
58	517809	154.624835938	0.255059061
58	518662	154.84740435	0.222568412
58	525197	156.122826277	1.275421927
58	527862	156.573806329	0.450980052
58	534464	157.908986566	1.335180237
58	547884	160.506631778	2.597645212
58	556403	162.281874854	1.775243076
58	573689	165.759412096	3.477537242
58	573956	165.830015361	0.070603265
58	587581	168.435752958	2.605737597
58	600390	171.005550053	2.569797095
58	601258	171.213445822	0.207895769
58	601358	171.237374041	0.023928219
58	607659	172.903824144	1.666450103
58	609381	173.493726454	0.58990231
58	619014	176.489086759	2.995360305
58	621944	177.232145565	0.743058806
58	625183	178.470468478	1.238322913
58	637087	181.951068402	3.480599924
58	643431	183.928617164	1.977548762
58	645775	184.371271856	0.442654692
58	656070	187.310684933	2.939413077
58	656267	187.374505637	0.063820704
58	659086	188.048154125	0.673648488
58	660793	188.423346097	0.375191972
58	665089	189.454403009	1.031056912
58	669702	190.98754306	1.533140051
58	673421	191.913498091	0.925955031
58	679021	194.000652043	2.087153952
58	682785	195.517390299	1.516738256
58	685021	196.274764614	0.757374315
58	687330	196.961754218	0.686989604
58	705564	203.636572231	6.674818013
58	705633	203.669814771	0.03324254
58	732895	212.002007513	8.332192742
58	738493	214.037582796	2.035575283
58	750096	217.649046102	3.611463306
58	758871	220.669055424	3.020009322
58	760399	221.341976105	0.672920681
58	761093	221.627853074	0.285876969
58	765610	223.108660565	1.480807491
58	778103	226.66752929	3.558868725
58	783627	228.073430214	1.405900924
58	788726	229.473009496	1.399579282
58	796051	231.650262171	2.177252675
58	803682	234.155161202	2.504899031
58	818824	239.76375068	5.608589478
58	826379	241.951372153	2.187621473
58	828124	242.354801669	0.403429516
58	839714	244.841495857	2.486694188
58	840927	245.124857364	0.283361507
58	842629	245.47650868	0.351651316
58	867897	250.889813131	5.413304451
58	869123	251.150550613	0.260737482
58	875053	252.283825359	1.133274746
58	882044	253.735926601	1.452101242
58	883480	254.033775322	0.297848721
58	889439	255.232033139	1.198257817
58	895604	256.263092797	1.031059658
58	895917	256.32462396	0.061531163
58	901506	257.588952555	1.264328595
58	913465	260.431414622	2.842462067
58	913967	260.54472671	0.113312088
58	918401	261.318130618	0.773403908
58	921905	261.955164519	0.637033901
58	926310	262.773824874	0.818660355
58	938675	265.018466243	2.244641369
58	942678	265.751557322	0.733091079
58	962259	269.449944561	3.698387239
58	981060	273.612923197	4.162978636
58	987935	274.870605243	1.257682046
58	996472	276.5368572	1.666251957
58	1005484	278.679937187	2.143079987
58	1009862	279.452023585	0.772086398
58	1021399	282.435355584	2.983331999
58	1030278	284.555068372	2.119712788
58	1031806	284.912969251	0.357900879
58	1061624	290.712337528	5.799368277
58	1062699	290.877895221	0.165557693
58	1065297	291.569431358	0.691536137
58	1068869	292.513336826	0.943905468
58	1078360	295.135224503	2.621887677
58	1078819	295.287705048	0.152480545
58	1082964	296.615210905	1.327505857
58	1085698	297.468837936	0.853627031
58	1093169	299.317178223	1.848340287
58	1103426	302.275731127	2.958552904
58	1113358	305.517741613	3.242010486
58	1127783	309.370986784	3.853245171
58	1128883	309.754100993	0.383114209
58	1132413	310.692689431	0.938588438
58	1141682	313.409010641	2.71632121
58	1145165	314.239408941	0.8303983
58	1148721	315.292103687	1.052694746
58	1149886	315.605993604	0.313889917
58	1158901	318.616654862	3.010661258
58	1159622	318.810831375	0.194176513
58	1168211	321.320711283	2.509879908
58	1168937	321.657648987	0.336937704
58	1168965	321.662685148	0.005036161
58	1169482	321.912484843	0.249799695
58	1198037	330.194349287	8.281864444
58	1205651	332.580024778	2.385675491
58	1212061	334.718108665	2.138083887
58	1215161	335.817122897	1.099014232
58	1220852	337.675739626	1.858616729
58	1229023	340.16095662	2.485216994
58	1236007	342.866586664	2.705630044
58	1252959	348.431975651	5.565388987
58	1258675	350.208547833	1.776572182
58	1265261	351.816257788	1.607709955
58	1266426	352.090560382	0.274302594
58	1268903	352.750886102	0.66032572
58	1281427	357.408708687	4.657822585
58	1312737	365.587597501	8.178888814
58	1313556	365.815168557	0.227571056
58	1316761	366.505417879	0.690249322
58	1326989	368.61897276	2.113554881
58	1361399	376.106884177	7.487911417
58	1363169	376.435816083	0.328931906
58	1375582	378.845833803	2.41001772
58	1375641	378.85678679	0.010952987
58	1385579	380.958471907	2.101685117
58	1388783	381.511939094	0.553467187
58	1402161	383.834890524	2.32295143
58	1411626	385.68025269	1.845362166
58	1426094	388.435451464	2.755198774
58	1436510	390.694085615	2.258634151
58	1441961	391.960780497	1.266694882
58	1498773	405.021086739	13.060306242
58	1502625	405.703609069	0.68252233
58	1505860	406.395002347	0.691393278
58	1509050	406.871895548	0.476893201
58	1511061	407.152428746	0.280533198
58	1523489	409.427944383	2.275515637
58	1529059	410.440086474	1.012142091
58	1533982	411.734182237	1.294095763
58	1544234	414.667237475	2.933055238
58	1550942	416.66004537	1.992807895
58	1551637	416.779896354	0.119850984
58	1552205	416.919613527	0.139717173
58	1573206	423.073910484	6.154296957
58	1584128	426.264905245	3.190994761
58	1585609	426.662814774	0.397909529
58	1594157	428.590599217	1.927784443
58	1594378	428.672165017	0.0815658
58	1604969	431.953353837	3.28118882
58	1605116	431.995852917	0.04249908
58	1606139	432.326812917	0.33096
58	1611620	433.791557163	1.464744246
58	1615601	435.302661036	1.511103873
58	1620458	436.586438933	1.283777897
58	1620847	436.696679133	0.1102402
58	1622512	437.241782231	0.545103098
58	1630948	439.356884304	2.115102073
58	1639132	441.692895977	2.336011673
58	1640417	442.069570095	0.376674118
58	1643726	442.945279224	0.875709129
58	1648714	444.078337231	1.133058007
58	1649239	444.208847378	0.130510147
58	1661991	447.561554991	3.352707613
58	1672877	450.64695944	3.085404449
58	1681612	453.087488444	2.440529004
58	1682245	453.236486702	0.148998258
58	1692708	456.666566769	3.430080067
58	1699558	458.647169317	1.980602548
58	1708403	461.456555635	2.809386318
58	1712551	462.821539193	1.364983558
58	1713146	462.973746179	0.152206986
58	1716523	463.834984941	0.861238762
58	1726693	466.768012901	2.93302796
58	1732717	468.61014013	1.842127229
58	1736072	469.77485732	1.16471719
58	1764662	478.403458589	8.628601269
58	1779995	482.897769897	4.494311308
58	1782994	483.652012925	0.754243028
58	1787200	484.518817804	0.866804879
58	1794606	486.189693931	1.670876127
58	1796214	486.513330675	0.323636744
58	1806819	488.972318413	2.458987738
58	1810346	489.632886848	0.660568435