version 2
run ChordDht-0-20211201-18:46:41-8648
attr configname ChordDht
attr datetime 20211201-18:46:41
attr experiment ChordDht
attr inifile configs.ini
attr iterationvars ""
attr iterationvars2 $repetition=0
attr measurement ""
attr network oversim.underlay.simpleunderlay.SimpleUnderlayNetwork
attr processid 8648
attr repetition 0
attr replication #0
attr resultdir results
attr runnumber 0
attr seedset 0

vector 1  SimpleUnderlayNetwork.globalObserver.globalStatistics  "GlobalDhtTestMap: Number of stored DHT entries"  ETV
vector 2  SimpleUnderlayNetwork.globalObserver.globalStatistics  "GlobalNodeList: Number of nodes"  ETV
1	30995	110	54
1	33132	120	67
1	41424	130	84
1	45103	140	97
1	48350	150	100
1	50642	160	100
1	53825	170	106
1	56154	180	114
1	59095	190	134
1	61234	200	147
1	64090	210	148
1	66983	220	151
1	69863	230	156
1	72265	240	168
1	80643	250	181
1	84627	260	195
1	87340	270	200
1	90029	280	201
1	92842	290	208
1	95091	300	218
1	98101	310	231
1	100334	320	243
1	103686	330	249
1	106354	340	253
1	108965	350	258
1	111623	360	253
1	119898	370	240
1	123616	380	241
1	127155	390	249
1	129725	400	252
1	132319	410	254
1	134720	420	253
1	137943	430	252
1	140520	440	248
1	143411	450	248
1	145914	460	252
1	148424	470	251
1	151242	480	258
1	159729	490	250
1	163853	500	248
1	166784	510	251
1	169090	520	254
1	172069	530	255
1	174172	540	249
1	177579	550	253
1	180245	560	252
1	183295	570	249
1	185653	580	252
1	188350	590	250
1	190643	600	252
1	199821	610	253
1	203818	620	253
1	206391	630	250
1	208786	640	250
1	212047	650	254
1	214121	660	250
1	217384	670	251
1	220279	680	254
1	223022	690	250
1	225553	700	251
1	228467	710	256
1	230934	720	252
1	239762	730	246
1	243545	740	247
1	246200	750	250
1	248515	760	252
1	251769	770	257
1	253950	780	249
1	257486	790	248
1	259745	800	244
1	262895	810	250
1	265376	820	250
1	268103	830	253
1	270781	840	256
1	279548	850	248
1	283405	860	245
1	285868	870	247
1	288268	880	253
1	291591	890	259
1	294568	900	253
1	297222	910	247
1	300042	920	248
1	302333	930	248
1	304812	940	253
1	307770	950	251
1	310661	960	254
1	319012	970	247
1	323594	980	247
1	325856	990	248
1	328277	1000	254
1	331685	1010	251
1	334039	1020	250
1	336865	1030	247
1	339832	1040	248
1	342894	1050	251
1	345310	1060	253
1	348474	1070	253
1	350600	1080	251
1	358825	1090	247
1	361066	1100	240
2	48349	150	50
2	61232	200	50
2	80642	250	50
2	95089	300	50
2	108964	350	50
2	129723	400	50
2	143410	450	50
2	163851	500	50
2	177578	550	50
2	190641	600	50
2	212046	650	50
2	225551	700	50
2	246199	750	50
2	259743	800	50
2	279547	850	50
2	294566	900	50
2	307769	950	50
2	328275	1000	50
2	342893	1050	50
2	361064	1100	50
