version 2
run ChordDht-0-20211210-20:00:14-12816
attr Lifetime 100s
attr configname ChordDht
attr datetime 20211210-20:00:14
attr experiment ChordDht
attr inifile configs.ini
attr iterationvars $Lifetime=100s
attr iterationvars2 "$Lifetime=100s, $repetition=0"
attr measurement $Lifetime=100s
attr network oversim.underlay.simpleunderlay.SimpleUnderlayNetwork
attr processid 12816
attr repetition 0
attr replication #0
attr resultdir results
attr runnumber 0
attr seedset 0

vector 1  SimpleUnderlayNetwork.globalObserver.globalStatistics  "GlobalDhtTestMap: Number of stored DHT entries"  ETV
vector 2  SimpleUnderlayNetwork.globalObserver.globalStatistics  "LifetimeChurn: Time between deletes"  ETV
vector 3  SimpleUnderlayNetwork.globalObserver.globalStatistics  "LifetimeChurn: Session Time"  ETV
vector 4  SimpleUnderlayNetwork.globalObserver.globalStatistics  "LifetimeChurn: Time between creates"  ETV
vector 5  SimpleUnderlayNetwork.globalObserver.globalStatistics  "GlobalNodeList: Number of nodes"  ETV
1	64646	110	74
1	68705	120	83
1	74075	130	99
1	77857	140	118
1	81797	150	130
1	85895	160	135
1	90182	170	144
1	94260	180	153
1	97416	190	169
1	101261	200	182
1	105344	210	195
1	109357	220	210
1	112918	230	219
1	116419	240	234
1	119886	250	245
1	123753	260	258
1	126865	270	266
1	129642	280	277
1	132247	290	285
1	134922	300	298
1	137027	310	306
1	139678	320	317
1	142693	330	329
1	145494	340	345
1	148129	350	359
1	151205	360	364
1	155444	370	357
1	158639	380	355
1	162351	390	361
1	164986	400	367
1	168372	410	369
1	171129	420	373
1	173290	430	368
1	175211	440	360
1	177738	450	359
1	179969	460	364
1	181893	470	363
1	184599	480	369
1	187685	490	363
1	190644	500	365
1	192848	510	364
1	195043	520	358
1	196906	530	361
1	199624	540	358
1	201618	550	357
1	203422	560	350
1	205233	570	354
1	206886	580	355
1	208894	590	356
1	210708	600	358
1	212746	610	357
1	214445	620	357
1	217001	630	356
1	218726	640	353
1	221059	650	351
1	223262	660	354
1	225639	670	349
1	227724	680	339
1	229799	690	337
1	231834	700	340
1	233622	710	344
1	235321	720	341
1	236798	730	336
1	238481	740	330
1	240380	750	333
1	242124	760	336
1	243649	770	340
1	245410	780	336
1	246969	790	336
1	249175	800	340
1	250777	810	339
1	252369	820	346
1	254008	830	343
1	255765	840	342
1	257407	850	345
1	259081	860	356
1	260741	870	357
1	262345	880	351
1	275141	890	352
1	285331	900	343
1	290818	910	349
1	296524	920	349
1	301140	930	345
1	305955	940	344
1	312343	950	341
1	316537	960	337
1	321013	970	330
1	327185	980	330
1	334740	990	332
1	340104	1000	337
1	348744	1010	338
1	355049	1020	337
1	360457	1030	348
1	365593	1040	353
1	369941	1050	356
1	374204	1060	353
1	378679	1070	353
1	384182	1080	352
1	389327	1090	358
1	393971	1100	349
2	64888	110.572927474	1.593595359
2	64895	110.595222168	0.022294694
2	65173	111.399638688	0.80441652
2	65225	111.680637607	0.280998919
2	65739	112.877132354	1.196494747
2	66201	114.500450782	1.623318428
2	66760	115.782641335	1.282190553
2	66944	116.48827194	0.705630605
2	67931	118.264789274	1.776517334
2	68158	118.754035082	0.489245808
2	68197	118.853864748	0.099829666
2	68374	119.310838157	0.456973409
2	69554	121.131867172	1.821029015
2	69796	121.538440689	0.406573517
2	70207	122.3089578	0.770517111
2	70745	123.452785189	1.143827389
2	70773	123.517638182	0.064852993
2	70777	123.545797397	0.028159215
2	71580	125.945619855	2.399822458
2	72141	126.584517607	0.638897752
2	73832	129.470559809	2.886042202
2	74167	130.177197989	0.70663818
2	74763	131.083644155	0.906446166
2	74943	131.443540029	0.359895874
2	75059	131.593548069	0.15000804
2	75134	131.702696419	0.10914835
2	75409	132.278664772	0.575968353
2	75469	132.420720016	0.142055244
2	75722	132.927201195	0.506481179
2	76340	134.997971954	2.070770759
2	76345	135.093467736	0.095495782
2	76552	135.655668053	0.562200317
2	76728	136.732462773	1.07679472
2	76751	136.866036323	0.13357355
2	77079	137.543434254	0.677397931
2	77114	137.794900587	0.251466333
2	77302	138.464555477	0.66965489
2	78058	140.541515972	2.076960495
2	78685	142.263897688	1.722381716
2	79034	143.445792067	1.181894379
2	79548	144.401792697	0.95600063
2	79852	145.20507461	0.803281913
2	79903	145.399386245	0.194311635
2	81336	148.51078089	3.111394645
2	81369	148.739103534	0.228322644
2	81682	149.664390235	0.925286701
2	81903	150.421902509	0.757512274
2	82837	152.458632723	2.036730214
2	82926	152.844268937	0.385636214
2	83205	153.751278306	0.907009369
2	83524	155.023020066	1.27174176
2	84312	156.219522326	1.19650226
2	85092	158.169306252	1.949783926
2	86154	160.701511229	2.532204977
2	86432	161.857237968	1.155726739
2	86446	161.910461198	0.05322323
2	87121	163.083122626	1.172661428
2	87314	163.695318085	0.612195459
2	87438	164.160702365	0.46538428
2	88396	166.465040888	2.304338523
2	88742	167.16901114	0.703970252
2	88828	167.551592977	0.382581837
2	88962	167.902578622	0.350985645
2	89070	168.316515877	0.413937255
2	89172	168.493676424	0.177160547
2	89819	169.288503151	0.794826727
2	90655	171.596053883	2.307550732
2	90756	171.962838035	0.366784152
2	90765	171.966122515	0.00328448
2	91471	174.11259155	2.146469035
2	91585	174.438175212	0.325583662
2	91893	175.249130668	0.810955456
2	92333	176.312342272	1.063211604
2	93121	177.519133195	1.206790923
2	93389	178.362516653	0.843383458
2	93769	178.951423057	0.588906404
2	93855	179.13580465	0.184381593
2	94113	179.671220416	0.535415766
2	94306	180.192099033	0.520878617
2	94675	181.381073881	1.188974848
2	94712	181.611396252	0.230322371
2	94941	182.226357078	0.614960826
2	94968	182.351600231	0.125243153
2	95149	183.088368538	0.736768307
2	95256	183.418587033	0.330218495
2	95310	183.56908388	0.150496847
2	95591	184.375306938	0.806223058
2	95753	184.816672465	0.441365527
2	96078	185.459385175	0.64271271
2	96195	186.02716513	0.567779955
2	96517	186.921203611	0.894038481
2	96699	187.535200396	0.613996785
2	97280	189.595775653	2.060575257
2	97494	190.357018294	0.761242641
2	97637	190.798189601	0.441171307
2	97743	191.316576636	0.518387035
2	98790	193.865836456	2.54925982
2	98946	194.163142065	0.297305609
2	99442	195.524638335	1.36149627
2	99817	196.672223525	1.14758519
2	99867	196.918013268	0.245789743
2	100239	197.763616325	0.845603057
2	101243	199.960193282	2.196576957
2	101320	200.26110495	0.300911668
2	101610	200.943623858	0.682518908
2	101698	201.419172998	0.47554914
2	101758	201.880228986	0.461055988
2	101893	202.377806303	0.497577317
2	102482	203.861917542	1.484111239
2	102643	204.219851687	0.357934145
2	102786	204.85710183	0.637250143
2	102826	205.054164013	0.197062183
2	103174	205.892571228	0.838407215
2	103535	206.901802095	1.009230867
2	103545	206.98215148	0.080349385
2	104001	207.942683399	0.960531919
2	104289	208.469512361	0.526828962
2	104333	208.540995858	0.071483497
2	105616	211.11784413	2.576848272
2	105743	211.693743048	0.575898918
2	105778	211.964153286	0.270410238
2	106225	212.977067923	1.012914637
2	106468	213.353586726	0.376518803
2	106897	214.890654665	1.537067939
2	108126	217.932979259	3.042324594
2	108360	218.293153451	0.360174192
2	109130	219.657597612	1.364444161
2	109398	220.124545436	0.466947824
2	109426	220.221974474	0.097429038
2	109545	220.497081028	0.275106554
2	109924	221.607047643	1.109966615
2	110169	222.069035763	0.46198812
2	110278	222.130124969	0.061089206
2	110659	223.04501386	0.914888891
2	111141	225.136856264	2.091842404
2	111532	226.045026758	0.908170494
2	111542	226.108777161	0.063750403
2	111551	226.165536259	0.056759098
2	111916	227.521250244	1.355713985
2	112370	229.089849184	1.56859894
2	112672	229.53542623	0.445577046
2	112900	229.930632443	0.395206213
2	113375	231.927881271	1.997248828
2	113402	232.023404222	0.095522951
2	113539	232.376465385	0.353061163
2	115133	235.928471663	3.552006278
2	115159	236.097443746	0.168972083
2	115297	236.595601838	0.498158092
2	115308	236.671058726	0.075456888
2	115313	236.690987213	0.019928487
2	115760	238.458453469	1.767466256
2	116349	239.82865414	1.370200671
2	116942	240.773408356	0.944754216
2	117851	243.610594747	2.837186391
2	117949	244.320794707	0.71019996
2	118084	244.968816179	0.648021472
2	118129	245.233988892	0.265172713
2	118148	245.311459796	0.077470904
2	118799	246.60532123	1.293861434
2	119141	247.470244634	0.864923404
2	119882	249.995975667	2.525731033
2	120324	251.093551362	1.097575695
2	120936	252.510072424	1.416521062
2	121231	253.781091443	1.271019019
2	121507	254.916346167	1.135254724
2	121719	256.021869123	1.105522956
2	121989	256.84867484	0.826805717
2	122821	258.020694804	1.172019964
2	123911	260.394501	2.373806196
2	124396	261.184153989	0.789652989
2	124844	261.684067379	0.49991339
2	124876	261.861444557	0.177377178
2	124891	261.976390934	0.114946377
2	125054	262.777754909	0.801363975
2	125391	264.386143448	1.608388539
2	125627	265.618936116	1.232792668
2	125952	266.848563746	1.22962763
2	126174	267.1387804	0.290216654
2	126198	267.202771856	0.063991456
2	126303	267.509704163	0.306932307
2	126595	268.765789718	1.256085555
2	127011	270.530611008	1.76482129
2	127261	271.425162205	0.894551197
2	127360	271.79068185	0.365519645
2	127421	272.171114257	0.380432407
2	127916	273.377023055	1.205908798
2	128120	274.057419285	0.68039623
2	128315	275.021263343	0.963844058
2	128367	275.516285872	0.495022529
2	128842	277.06984576	1.553559888
2	128876	277.175577893	0.105732133
2	129508	279.616174523	2.44059663
2	129806	280.639255383	1.02308086
2	130026	281.431133342	0.791877959
2	130138	282.084226645	0.653093303
2	130654	284.404409326	2.320182681
2	130672	284.544058769	0.139649443
2	130719	284.655592734	0.111533965
2	130779	285.04918373	0.393590996
2	130800	285.140850287	0.091666557
2	130812	285.151012277	0.01016199
2	131148	285.943000308	0.791988031
2	131650	287.13379294	1.190792632
2	131839	287.969126963	0.835334023
2	132438	290.884972106	2.915845143
2	132743	291.727014414	0.842042308
2	132966	292.692496815	0.965482401
2	133825	296.494018106	3.801521291
2	133885	296.950079723	0.456061617
2	134248	297.809777977	0.859698254
2	134465	298.879615883	1.069837906
2	134624	299.487277059	0.607661176
2	134717	299.790597201	0.303320142
2	135014	300.149075262	0.358478061
2	135458	302.020522576	1.871447314
2	136834	308.932355675	6.911833099
2	136997	309.86492082	0.932565145
2	137418	311.154904232	1.289983412
2	137919	313.037241578	1.882337346
2	137964	313.260593228	0.22335165
2	138689	315.505908697	2.245315469
2	138690	315.512040679	0.006131982
2	138948	317.055134038	1.543093359
2	139994	320.973294425	3.918160387
2	140391	321.699539081	0.726244656
2	140407	321.801288436	0.101749355
2	140620	322.858488759	1.057200323
2	141266	324.211159361	1.352670602
2	141681	325.134852777	0.923693416
2	141867	326.077753768	0.942900991
2	142096	327.561023169	1.483269401
2	142115	327.803635298	0.242612129
2	142188	328.080281348	0.27664605
2	142334	328.269981927	0.189700579
2	142622	329.705152098	1.435170171
2	143664	333.967402724	4.262250626
2	143777	334.375234218	0.407831494
2	143799	334.455290669	0.080056451
2	143925	334.794124726	0.338834057
2	144166	335.227324855	0.433200129
2	144238	335.30261292	0.075288065
2	145064	338.114633765	2.812020845
2	145122	338.308401974	0.193768209
2	145899	341.277326145	2.968924171
2	145993	341.491227992	0.213901847
2	146072	341.773404942	0.28217695
2	146568	343.656497611	1.883092669
2	146670	344.261707606	0.605209995
2	146778	344.631650592	0.369942986
2	146928	344.985672599	0.354022007
2	147459	347.139413959	2.15374136
2	147957	349.415156129	2.27574217
2	148238	350.515263551	1.100107422
2	148251	350.680461099	0.165197548
2	148252	350.696507419	0.01604632
2	148404	351.833117032	1.136609613
2	148579	352.491613054	0.658496022
2	148624	352.638932262	0.147319208
2	148918	353.599967538	0.961035276
2	149189	354.137611462	0.537643924
2	150228	356.911770307	2.774158845
2	150569	357.710090902	0.798320595
2	151258	360.144821904	2.434731002
2	151341	360.456579157	0.311757253
2	151772	361.585495094	1.128915937
2	152644	362.925646874	1.34015178
2	152996	364.143658635	1.218011761
2	153781	365.381591338	1.237932703
2	154974	368.20543673	2.823845392
2	155138	368.867056193	0.661619463
2	155382	369.75337299	0.886316797
2	155442	369.97614225	0.22276926
2	155478	370.153334107	0.177191857
2	155567	370.512183475	0.358849368
2	155587	370.573771741	0.061588266
2	156001	372.191283883	1.617512142
2	156124	372.675099974	0.483816091
2	156332	373.423455791	0.748355817
2	156392	373.812241641	0.38878585
2	157039	375.869165763	2.056924122
2	157070	375.90895719	0.039791427
2	157318	376.745536528	0.836579338
2	157338	376.799982283	0.054445755
2	157598	377.221176679	0.421194396
2	158275	379.487545156	2.266368477
2	159127	381.721100696	2.23355554
2	159343	382.435135728	0.714035032
2	159344	382.469730014	0.034594286
2	159940	383.732320664	1.26259065
2	160370	385.103333001	1.371012337
2	160371	385.108823389	0.005490388
2	160458	385.322876335	0.214052946
2	161346	387.159263332	1.836386997
2	161786	387.866374637	0.707111305
2	162024	388.453857343	0.587482706
2	162071	388.571910661	0.118053318
2	162335	389.941297821	1.36938716
2	162355	390.015935973	0.074638152
2	162488	390.575261993	0.55932602
2	162524	390.951208972	0.375946979
2	162774	391.63937166	0.688162688
2	162972	391.855456063	0.216084403
2	163080	392.257274082	0.401818019
2	163161	393.116350509	0.859076427
2	163685	395.373989199	2.25763869
2	163778	395.695639249	0.32165005
2	163944	396.027910925	0.332271676
2	164012	396.21041562	0.182504695
2	164031	396.293683998	0.083268378
2	164068	396.392084699	0.098400701
2	164172	396.587790236	0.195705537
2	164346	397.268855019	0.681064783
2	164557	397.993430302	0.724575283
2	164875	399.738193375	1.744763073
2	165084	400.509657088	0.771463713
2	165637	403.143285092	2.633628004
2	165865	404.309550223	1.166265131
2	166032	404.789257305	0.479707082
2	166154	405.091201346	0.301944041
2	166194	405.266003037	0.174801691
2	166952	406.764697252	1.498694215
2	167117	406.981690289	0.216993037
2	168097	408.790281845	1.808591556
2	168210	409.259001882	0.468720037
2	168458	410.503841236	1.244839354
2	168484	410.709710193	0.205868957
2	168608	411.182859434	0.473149241
2	168617	411.188032635	0.005173201
2	168787	411.834168351	0.646135716
2	169192	414.188962041	2.35479369
2	169195	414.224232026	0.035269985
2	169241	414.351295203	0.127063177
2	169249	414.388668826	0.037373623
2	169287	414.462476498	0.073807672
2	169912	415.77838637	1.315909872
2	170296	416.830030431	1.051644061
2	170650	417.616514109	0.786483678
2	170700	417.80982914	0.193315031
2	170782	418.338725399	0.528896259
2	170920	419.006145372	0.667419973
2	170938	419.066512694	0.060367322
2	171094	419.815884902	0.749372208
2	171109	419.912517335	0.096632433
2	171132	420.088005117	0.175487782
2	171146	420.222897885	0.134892768
2	171168	420.465513355	0.24261547
2	171686	423.207579518	2.742066163
2	173227	429.425746802	6.218167284
2	173527	431.233795246	1.808048444
2	173582	431.619726898	0.385931652
2	173656	432.02631481	0.406587912
2	173859	433.340466301	1.314151491
2	174008	433.964013104	0.623546803
2	174017	434.022881468	0.058868364
2	174161	434.390782628	0.36790116
2	174227	434.578650403	0.187867775
2	174478	435.888833577	1.310183174
2	174546	436.325661017	0.43682744
2	174646	436.816698757	0.49103774
2	174812	437.958279335	1.141580578
2	175347	440.690890183	2.732610848
2	175936	443.273037445	2.582147262
2	175974	443.456473034	0.183435589
2	175975	443.493640657	0.037167623
2	176516	445.870767379	2.377126722
2	176565	446.043014579	0.1722472
2	176776	446.684559439	0.64154486
2	176777	446.687993919	0.00343448
2	176971	447.503398213	0.815404294
2	177077	448.154486466	0.651088253
2	177365	449.015391619	0.860905153
2	177521	449.219357809	0.20396619
2	178310	452.737133176	3.517775367
2	178509	454.273099263	1.535966087
2	178710	455.245242021	0.972142758
2	178849	455.451130993	0.205888972
2	178950	455.895077433	0.44394644
2	179497	457.871644692	1.976567259
2	179516	458.147595487	0.275950795
2	179636	459.026774317	0.87917883
2	179638	459.030774987	0.00400067
2	179700	459.179869815	0.149094828
2	180101	460.711602243	1.531732428
2	180245	461.18867543	0.477073187
2	180270	461.35781538	0.16913995
2	180422	462.039774546	0.681959166
2	180465	462.343030549	0.303256003
2	180567	462.95052686	0.607496311
2	180665	463.494933843	0.544406983
2	181216	466.4169459	2.922012057
2	181407	467.368297141	0.951351241
2	181606	468.555089728	1.186792587
2	181684	469.05270007	0.497610342
2	181726	469.134434838	0.081734768
2	181854	469.74178094	0.607346102
2	182291	471.767411994	2.025631054
2	182309	471.843375971	0.075963977
2	182376	472.187532475	0.344156504
2	182705	473.542260859	1.354728384
2	183920	477.35904072	3.816779861
2	183975	477.597906159	0.238865439
2	184990	481.078746859	3.4808407
2	185162	481.658146534	0.579399675
2	185359	482.324045205	0.665898671
2	185401	482.601178261	0.277133056
2	185410	482.656656286	0.055478025
2	185460	483.125772354	0.469116068
2	185491	483.355135349	0.229362995
2	186916	488.021966157	4.666830808
2	187082	488.297526041	0.275559884
2	187109	488.337839143	0.040313102
2	187511	489.492090258	1.154251115
2	187531	489.537513634	0.045423376
2	187892	490.42226023	0.884746596
2	187927	490.557667502	0.135407272
2	188038	491.044787224	0.487119722
2	188674	493.226240899	2.181453675
2	188736	493.685720026	0.459479127
2	189014	495.053998731	1.368278705
2	189047	495.149624687	0.095625956
2	189297	496.187388801	1.037764114
2	189311	496.354758586	0.167369785
2	189330	496.395150657	0.040392071
2	189416	496.717842087	0.32269143
2	189516	497.006976863	0.289134776
2	189530	497.050696496	0.043719633
2	189655	497.689970194	0.639273698
2	189734	498.207548817	0.517578623
2	190046	498.817651012	0.610102195
2	190298	499.329926512	0.5122755
2	190841	500.420038073	1.090111561
2	190962	501.009553293	0.58951522
2	191029	501.146658546	0.137105253
2	191148	501.935153418	0.788494872
2	191367	503.680685351	1.745531933
2	191390	503.881702175	0.201016824
2	191598	504.589849879	0.708147704
2	191635	504.749399567	0.159549688
2	191917	505.900697325	1.151297758
2	192406	507.835121757	1.934424432
2	192715	509.222017306	1.386895549
2	192852	510.014440148	0.792422842
2	193036	510.923508214	0.909068066
2	193074	511.025634018	0.102125804
2	193465	512.860741092	1.835107074
2	193476	512.890263319	0.029522227
2	194162	515.440302246	2.550038927
2	194215	515.63052462	0.190222374
2	194443	516.866913462	1.236388842
2	194628	517.909502102	1.04258864
2	194672	518.045005832	0.13550373
2	194688	518.206394774	0.161388942
2	194691	518.272776249	0.066381475
2	194720	518.46868258	0.195906331
2	194908	519.391527164	0.922844584
2	194965	519.667748307	0.276221143
2	195102	520.346132473	0.678384166
2	195545	522.350278007	2.004145534
2	195599	522.845931347	0.49565334
2	195703	523.678280595	0.832349248
2	195721	523.85688872	0.178608125
2	195754	524.039075862	0.182187142
2	196014	525.443722504	1.404646642
2	196543	528.217894483	2.774171979
2	196570	528.39640473	0.178510247
2	196731	529.303546223	0.907141493
2	197397	531.466963208	2.163416985
2	197731	532.449957231	0.982994023
2	198495	535.827122272	3.377165041
2	198554	536.068177243	0.241054971
2	198777	536.964621601	0.896444358
2	198825	536.993093119	0.028471518
2	198912	537.187127098	0.194033979
2	199466	539.370235583	2.183108485
2	199489	539.504516836	0.134281253
2	199543	539.801723777	0.297206941
2	199690	540.303012712	0.501288935
2	200250	543.010262422	2.70724971
2	200674	545.046960041	2.036697619
2	200676	545.064561086	0.017601045
2	200816	545.874983456	0.81042237
2	200862	546.196138892	0.321155436
2	200976	546.885116963	0.688978071
2	201032	547.049329251	0.164212288
2	201062	547.169256966	0.119927715
2	201199	547.847627496	0.67837053
2	201407	548.803902643	0.956275147
2	201450	548.986160509	0.182257866
2	201703	550.364085211	1.377924702
2	202023	552.292561869	1.928476658
2	202027	552.340500857	0.047938988
2	202042	552.41746783	0.076966973
2	202097	552.785073298	0.367605468
2	202193	553.347223804	0.562150506
2	202278	553.667206762	0.319982958
2	202332	554.120350312	0.45314355
2	202475	554.951380633	0.831030321
2	202552	555.285936164	0.334555531
2	202643	555.83445395	0.548517786
2	203080	558.583704968	2.749251018
2	203165	558.791827675	0.208122707
2	203220	559.100871831	0.309044156
2	203497	560.395109733	1.294237902
2	203656	561.274858114	0.879748381
2	203705	561.58424848	0.309390366
2	203728	561.831164786	0.246916306
2	203743	561.911189101	0.080024315
2	203832	562.45414997	0.542960869
2	204465	565.815779037	3.361629067
2	205060	569.023661483	3.207882446
2	205172	569.393504704	0.369843221
2	205243	570.076901398	0.683396694
2	205429	570.772076314	0.695174916
2	205636	571.810213959	1.038137645
2	206254	574.999783318	3.189569359
2	206518	577.25393272	2.254149402
2	206614	578.131896064	0.877963344
2	206710	578.53594287	0.404046806
2	206784	579.572705545	1.036762675
2	207292	582.273229819	2.700524274
2	207344	582.782227403	0.508997584
2	207488	583.439881412	0.657654009
2	208051	586.072766428	2.632885016
2	208105	586.403172484	0.330406056
2	208139	586.690708874	0.28753639
2	208176	586.886726783	0.196017909
2	208199	587.135893382	0.249166599
2	208294	587.832677562	0.69678418
2	208621	588.814878743	0.982201181
2	208768	589.431666412	0.616787669
2	208951	590.268218135	0.836551723
2	209511	593.17992124	2.911703105
2	209682	593.949139204	0.769217964
2	209708	594.011683227	0.062544023
2	209849	594.647202106	0.635518879
2	209885	594.8170454	0.169843294
2	210096	596.131019559	1.313974159
2	210177	596.653748651	0.522729092
2	210216	596.852572002	0.198823351
2	210269	597.496688829	0.644116827
2	210860	600.707826663	3.211137834
2	211734	605.044719868	4.336893205
2	212552	609.192651483	4.147931615
2	212642	609.669270683	0.4766192
2	212821	610.210697453	0.54142677
2	213134	611.53513875	1.324441297
2	213144	611.602366221	0.067227471
2	213370	613.480789213	1.878422992
2	213797	616.066071473	2.58528226
2	213948	617.311108428	1.245036955
2	213973	617.490725727	0.179617299
2	214016	617.704160469	0.213434742
2	214248	618.89971324	1.195552771
2	214282	619.122553519	0.222840279
2	214767	620.956978516	1.834424997
2	215772	625.011173688	4.054195172
2	216143	625.784640669	0.773466981
2	216292	626.417878737	0.633238068
2	217342	631.702909746	5.285031009
2	217417	632.383507406	0.68059766
2	217534	633.18467636	0.801168954
2	217539	633.235843138	0.051166778
2	217915	635.038957866	1.803114728
2	218173	636.567604877	1.528647011
2	218290	637.465845559	0.898240682
2	218388	638.032690255	0.566844696
2	218571	639.044686084	1.011995829
2	218691	639.769238281	0.724552197
2	219370	642.860954517	3.091716236
2	219440	643.32930106	0.468346543
2	219551	643.888725684	0.559424624
2	219949	644.851157239	0.962431555
2	220251	645.408582299	0.55742506
2	220396	646.497614152	1.089031853
2	220425	646.650774832	0.15316068
2	220455	646.786085712	0.13531088
2	220481	646.914193187	0.128107475
2	220621	647.840514394	0.926321207
2	220873	648.836721303	0.996206909
2	220935	649.083349817	0.246628514
2	220949	649.278510937	0.19516112
2	221039	649.940413775	0.661902838
2	221054	649.981288629	0.040874854
2	221079	650.103123932	0.121835303
2	221105	650.258196222	0.15507229
2	221306	650.9081297	0.649933478
2	221813	652.678500491	1.770370791
2	221888	652.959925013	0.281424522
2	221969	653.200089319	0.240164306
2	221977	653.328242169	0.12815285
2	222017	653.687166452	0.358924283
2	222067	653.832902613	0.145736161
2	222469	655.566292367	1.733389754
2	222556	656.314841548	0.748549181
2	222859	658.224993616	1.910152068
2	223236	659.849764789	1.624771173
2	223747	662.240652649	2.39088786
2	224120	664.111601761	1.870949112
2	224153	664.240896419	0.129294658
2	224629	665.235717058	0.994820639
2	224641	665.241801005	0.006083947
2	224833	666.317388582	1.075587577
2	224943	667.199644569	0.882255987
2	224959	667.237122006	0.037477437
2	225739	670.487988681	3.250866675
2	225781	670.702861064	0.214872383
2	226313	672.013112934	1.31025187
2	226438	672.771706955	0.758594021
2	226798	674.637080066	1.865373111
2	226953	675.220016416	0.58293635
2	227018	675.770848925	0.550832509
2	227064	676.229202856	0.458353931
2	227501	678.680181159	2.450978303
2	227947	680.967936984	2.287755825
2	228133	681.996860471	1.028923487
2	228142	682.09228958	0.095429109
2	228194	682.265137367	0.172847787
2	228314	683.132811108	0.867673741
2	228346	683.482667605	0.349856497
2	228372	683.631874889	0.149207284
2	228441	683.944615445	0.312740556
2	228539	684.339155439	0.394539994
2	228675	684.882820772	0.543665333
2	228749	685.104065645	0.221244873
2	229051	686.336526634	1.232460989
2	229069	686.408574082	0.072047448
2	229323	688.398012619	1.989438537
2	229791	689.985375364	1.587362745
2	229805	690.026071055	0.040695691
2	229958	690.643548984	0.617477929
2	230123	691.23647133	0.592922346
2	230260	691.939680413	0.703209083
2	230271	692.047271131	0.107590718
2	230365	692.42461404	0.377342909
2	230396	692.793529693	0.368915653
2	230397	692.816709498	0.023179805
2	230777	694.668535158	1.85182566
2	231110	697.317830827	2.649295669
2	231142	697.625332081	0.307501254
2	231160	697.818472003	0.193139922
2	231172	697.90525309	0.086781087
2	231379	698.509653223	0.604400133
2	231759	699.546276309	1.036623086
2	231910	700.489128085	0.942851776
2	231937	700.568011913	0.078883828
2	232270	702.471377922	1.903366009
2	232596	704.432135181	1.960757259
2	232972	706.550809168	2.118673987
2	233093	707.185069183	0.634260015
2	233112	707.406679032	0.221609849
2	233202	708.085350992	0.67867196
2	233566	709.69664983	1.611298838
2	233600	709.915455403	0.218805573
2	233761	710.850979972	0.935524569
2	233771	710.89807113	0.047091158
2	233811	711.237732631	0.339661501
2	233881	711.860092585	0.622359954
2	233964	712.187470507	0.327377922
2	234145	712.62098102	0.433510513
2	234261	713.370171994	0.749190974
2	234430	714.046201939	0.676029945
2	234500	714.417222101	0.371020162
2	234787	716.554948932	2.137726831
2	234898	717.460587826	0.905638894
2	234991	718.148734769	0.688146943
2	234999	718.293016107	0.144281338
2	235094	718.764462228	0.471446121
2	235389	720.663540399	1.899078171
2	235397	720.700711261	0.037170862
2	235599	722.018601093	1.317889832
2	235704	722.606020689	0.587419596
2	235753	722.979252808	0.373232119
2	235819	723.509672477	0.530419669
2	236000	724.636909247	1.12723677
2	236031	724.944418875	0.307509628
2	236039	724.961762127	0.017343252
2	236192	725.882224099	0.920461972
2	236218	726.169232213	0.287008114
2	236300	726.634949036	0.465716823
2	236449	727.879492918	1.244543882
2	236954	730.987270386	3.107777468
2	237068	731.792150737	0.804880351
2	237560	734.637349847	2.84519911
2	237866	735.501003498	0.863653651
2	238000	736.264375953	0.763372455
2	238137	737.317776564	1.053400611
2	238138	737.369780887	0.052004323
2	238333	738.810577923	1.440797036
2	238354	739.00226436	0.191686437
2	238498	740.035619431	1.033355071
2	238554	740.400343191	0.36472376
2	238579	740.718870062	0.318526871
2	238637	741.252806001	0.533935939
2	238707	741.743356541	0.49055054
2	238762	742.086816505	0.343459964
2	238809	742.40433546	0.317518955
2	239929	747.390026615	4.985691155
2	239971	747.545315974	0.155289359
2	240266	748.825558586	1.280242612
2	240537	750.739425057	1.913866471
2	240677	751.454480612	0.715055555
2	240786	752.08395352	0.629472908
2	240817	752.181991423	0.098037903
2	240881	752.459883407	0.277891984
2	240958	753.106225737	0.64634233
2	241305	754.636423452	1.530197715
2	241667	756.780906892	2.14448344
2	241704	757.060412566	0.279505674
2	241981	758.929447268	1.869034702
2	242312	761.235147256	2.305699988
2	242521	762.284989607	1.049842351
2	242533	762.477128456	0.192138849
2	242931	764.647375677	2.170247221
2	243207	766.586617411	1.939241734
2	243429	768.382238072	1.795620661
2	243497	768.949374125	0.567136053
2	243570	769.51674478	0.567370655
2	243574	769.564076665	0.047331885
2	244175	772.601916815	3.03784015
2	244496	774.265205026	1.663288211
2	244554	774.469419259	0.204214233
2	244700	775.033805904	0.564386645
2	244801	775.473067337	0.439261433
2	244804	775.507267207	0.03419987
2	244965	776.739134728	1.231867521
2	245176	778.412411173	1.673276445
2	245211	778.558048007	0.145636834
2	245351	779.468136756	0.910088749
2	245401	779.940638752	0.472501996
2	245595	781.007996045	1.067357293
2	245678	781.580859982	0.572863937
2	245770	781.955066306	0.374206324
2	245797	782.097716273	0.142649967
2	245822	782.205866195	0.108149922
2	246122	784.24055562	2.034689425
2	246457	786.294513865	2.053958245
2	246525	786.700132739	0.405618874
2	246638	787.540125088	0.839992349
2	246717	788.057298315	0.517173227
2	246919	789.497373579	1.440075264
2	247168	790.915376367	1.418002788
2	247354	791.995484259	1.080107892
2	247390	792.272624132	0.277139873
2	247418	792.46695741	0.194333278
2	247437	792.823164	0.35620659
2	247519	793.498764651	0.675600651
2	247729	794.473208041	0.97444339
2	247753	794.548950705	0.075742664
2	248103	795.674593543	1.125642838
2	248204	796.420542438	0.745948895
2	248907	798.627975366	2.207432928
2	249462	801.159224754	2.531249388
2	249674	802.612379284	1.45315453
2	249727	803.016410129	0.404030845
2	249765	803.205524545	0.189114416
2	249961	804.259526262	1.054001717
2	250051	804.751374729	0.491848467
2	250488	807.952991134	3.201616405
2	250729	809.595282116	1.642290982
2	250915	810.763372268	1.168090152
2	251271	812.418797215	1.655424947
2	251407	813.439165606	1.020368391
2	251584	814.213892001	0.774726395
2	251609	814.310302915	0.096410914
2	251658	814.658610658	0.348307743
2	252033	817.466665834	2.808055176
2	252485	820.707132394	3.24046656
2	252662	821.576839988	0.869707594
2	252689	821.775147046	0.198307058
2	253168	824.776819125	3.001672079
2	253174	824.831137866	0.054318741
2	253208	824.989633257	0.158495391
2	253381	826.091238888	1.101605631
2	253444	826.556944828	0.46570594
2	253459	826.620977049	0.064032221
2	253484	826.985105534	0.364128485
2	253667	828.044226603	1.059121069
2	253985	829.757515067	1.713288464
2	254039	830.172358069	0.414843002
2	254114	830.484036523	0.311678454
2	254134	830.582462184	0.098425661
2	254353	831.917197468	1.334735284
2	254529	833.091787858	1.17459039
2	254640	833.647497443	0.555709585
2	254654	833.700548565	0.053051122
2	255111	836.198338623	2.497790058
2	255269	837.368905491	1.170566868