version 2
run ChordTest-2-20211108-20:50:43-8612
attr configname ChordTest
attr datetime 20211108-20:50:43
attr experiment ChordTest
attr inifile temp.ini
attr iterationvars ""
attr iterationvars2 $repetition=2
attr measurement ""
attr network oversim.underlay.simpleunderlay.SimpleUnderlayNetwork
attr processid 8612
attr repetition 2
attr replication #2
attr resultdir results
attr runnumber 2
attr seedset 2

vector 1  SimpleUnderlayNetwork.globalObserver.globalStatistics  "GlobalNodeList: Number of nodes"  ETV
1	11261	50	10
1	22000	100	10
1	33365	150	10
1	43928	200	10
1	55291	250	10
1	65856	300	10
1	76543	350	10
1	87784	400	10
1	98469	450	10
1	109708	500	10
1	120403	550	10
1	130965	600	10
1	142331	650	10
1	152892	700	10
1	164259	750	10
1	174820	800	10
1	186187	850	10
1	196748	900	10
1	207439	950	10
1	218676	1000	10
1	229367	1050	10
1	240604	1100	10
1	251295	1150	10
1	261853	1200	10
1	273223	1250	10
1	283780	1300	10
1	295147	1350	10
1	305712	1400	10
1	317079	1450	10
1	327640	1500	10
1	338331	1550	10
1	349568	1600	10
1	360259	1650	10
1	371496	1700	10
1	382187	1750	10
1	392749	1800	10
1	404115	1850	10
1	414676	1900	10
1	426043	1950	10
1	436604	2000	10
1	447965	2050	10
1	458528	2100	10
1	469219	2150	10
1	480456	2200	10
1	491147	2250	10
1	502388	2300	10
1	513075	2350	10
1	523637	2400	10
1	535007	2450	10
1	545564	2500	10
1	556933	2550	10
