version 2
run KademliaDHT-5-20211202-22:10:41-9356
attr Lifetime 600s
attr configname KademliaDHT
attr datetime 20211202-22:10:41
attr experiment KademliaDHT
attr inifile configs.ini
attr iterationvars $Lifetime=600s
attr iterationvars2 "$Lifetime=600s, $repetition=0"
attr measurement $Lifetime=600s
attr network oversim.underlay.simpleunderlay.SimpleUnderlayNetwork
attr processid 9356
attr repetition 0
attr replication #0
attr resultdir results
attr runnumber 5
attr seedset 5

vector 36  SimpleUnderlayNetwork.globalObserver.globalStatistics  "GlobalNodeList: Number of nodes"  ETV
vector 37  SimpleUnderlayNetwork.globalObserver.globalStatistics  "GlobalDhtTestMap: Number of stored DHT entries"  ETV
vector 38  SimpleUnderlayNetwork.globalObserver.globalStatistics  "Kademlia: Buckets Refreshed Per Task"  ETV
vector 39  SimpleUnderlayNetwork.globalObserver.globalStatistics  "LifetimeChurn: Session Time"  ETV
vector 40  SimpleUnderlayNetwork.globalObserver.globalStatistics  "LifetimeChurn: Time between creates"  ETV
vector 41  SimpleUnderlayNetwork.globalObserver.globalStatistics  "LifetimeChurn: Time between deletes"  ETV
36	1303789	150	496
36	1913306	200	494
36	2506550	250	496
36	3066349	300	494
36	3689421	350	512
36	4289174	400	502
36	4903882	450	497
36	5517939	500	496
36	6121242	550	502
36	6724300	600	501
36	7341500	650	507
36	7952124	700	517
36	8581002	750	518
36	9203246	800	512
36	9810966	850	507
36	10412104	900	508
36	11027543	950	505
36	11651147	1000	519
36	12302548	1050	514
36	12967690	1100	514
37	1303790	150	714
37	1426964	160	821
37	1543025	170	898
37	1659962	180	950
37	1787328	190	1010
37	1913307	200	1094
37	2025955	210	1167
37	2140070	220	1261
37	2259710	230	1346
37	2382793	240	1408
37	2506551	250	1476
37	2623604	260	1542
37	2737727	270	1624
37	2853110	280	1706
37	2961286	290	1785
37	3066350	300	1863
37	3199317	310	1933
37	3314287	320	2005
37	3444046	330	2100
37	3564448	340	2177
37	3689422	350	2257
37	3795973	360	2317
37	3916670	370	2309
37	4045885	380	2307
37	4174449	390	2300
37	4289175	400	2274
37	4408653	410	2293
37	4534507	420	2315
37	4651457	430	2314
37	4790062	440	2320
37	4903883	450	2328
37	5024053	460	2293
37	5141407	470	2306
37	5253637	480	2310
37	5374148	490	2319
37	5517940	500	2333
37	5627474	510	2324
37	5748688	520	2311
37	5871718	530	2304
37	5996007	540	2313
37	6121243	550	2338
37	6251407	560	2343
37	6380889	570	2337
37	6496605	580	2335
37	6609851	590	2325
37	6724301	600	2324
37	6854579	610	2331
37	6987263	620	2336
37	7105963	630	2317
37	7219467	640	2324
37	7341501	650	2326
37	7469195	660	2331
37	7587104	670	2341
37	7716351	680	2341
37	7842023	690	2333
37	7952125	700	2333
37	8077211	710	2328
37	8212579	720	2344
37	8322940	730	2359
37	8437971	740	2349
37	8581003	750	2340
37	8708087	760	2346
37	8837834	770	2336
37	8959969	780	2368
37	9073880	790	2350
37	9203247	800	2342
37	9326917	810	2363
37	9446273	820	2362
37	9574018	830	2366
37	9687081	840	2379
37	9810967	850	2355
37	9937496	860	2365
37	10059355	870	2371
37	10191221	880	2390
37	10307475	890	2381
37	10412105	900	2387
37	10534720	910	2384
37	10658681	920	2386
37	10775690	930	2394
37	10906888	940	2394
37	11027544	950	2399
37	11146790	960	2393
37	11265413	970	2384
37	11393512	980	2380
37	11521996	990	2385
37	11651148	1000	2399
37	11779461	1010	2390
37	11910271	1020	2390
37	12035606	1030	2381
37	12179835	1040	2393
37	12302549	1050	2393
37	12445051	1060	2396
37	12562294	1070	2402
37	12711154	1080	2394
37	12839982	1090	2409
37	12967691	1100	2409
37	13075944	1110	2402
37	13194564	1120	2395
37	13316734	1130	2395
37	13397621	1140	2379
38	1306994	150.331918582	0
38	1307288	150.360443296	0
38	1308722	150.537018681	0
38	1308938	150.56846709	0
38	1310503	150.735974331	0
38	1310524	150.738268941	2
38	1314875	151.09560709	0
38	1318449	151.346087534	4
38	1320180	151.471905662	1
38	1321731	151.564254244	0
38	1321733	151.564352659	0
38	1351408	153.998578831	3
38	1353871	154.246754557	0
38	1356744	154.612625608	1
38	1365338	155.285310522	0
38	1373585	155.950943908	8
38	1391904	157.039759482	0
38	1418228	159.000207715	0
38	1418360	159.011590285	0
38	1430487	160.407083051	1
38	1447592	162.477884472	3
38	1476130	165.113333698	3
38	1506648	167.207864074	0
38	1511631	167.667938011	2
38	1512493	167.747467348	0
38	1519874	168.295142427	0
38	1549175	170.594248265	4
38	1558764	171.692831797	3
38	1564842	172.401721702	0
38	1577931	173.840044015	0
38	1580092	173.999475472	0
38	1586706	174.647607881	0
38	1614516	177.084907025	0
38	1615952	177.273073126	1
38	1635697	178.543169008	0
38	1638096	178.66244223	5
38	1640077	178.747867789	0
38	1646382	179.129342809	3
38	1646458	179.13530779	1
38	1651691	179.507198027	0
38	1669674	180.602420761	6
38	1672108	180.760553014	1
38	1682420	181.469463245	4
38	1684390	181.592075371	0
38	1694087	182.538390775	0
38	1696772	182.889437351	0
38	1711154	184.132395567	3
38	1730397	185.406002313	0
38	1737205	186.107292582	0
38	1762509	187.969372082	6
38	1767055	188.397163211	2
38	1778661	189.379873785	0
38	1783911	189.756121195	2
38	1789346	190.138991227	2
38	1815938	192.29903114	1
38	1817434	192.421603233	0
38	1832662	193.503694619	0
38	1841962	194.370909784	3
38	1845489	194.737941963	1
38	1850590	195.059772764	4
38	1851250	195.098712096	2
38	1855194	195.323991528	5
38	1857192	195.454839543	1
38	1865385	196.205230359	3
38	1873556	196.902936324	0
38	1882817	197.424600248	0
38	1891358	198.010442345	0
38	1900714	198.645592889	0
38	1913414	200.016892294	2
38	1916273	200.286142219	2
38	1920683	200.635095342	0
38	1925287	200.978789587	0
38	1925333	200.981043783	0
38	1925568	200.996745134	0
38	1931594	201.590988092	0
38	1931625	201.593557784	0
38	1934056	201.921753447	0
38	1934931	202.032078485	0
38	1935097	202.048582289	0
38	1935706	202.106747162	0
38	1935870	202.117771606	0
38	1938143	202.322380403	0
38	1938392	202.34348366	0
38	1939625	202.461810776	0
38	1940372	202.52693961	0
38	1942883	202.699246722	0
38	1945942	202.88597191	0
38	1946406	202.910669049	0
38	1947983	203.023972922	0
38	1948401	203.055928157	0
38	1949700	203.205247684	0
38	1950311	203.323450986	0
38	1952673	203.659646847	2
38	1952717	203.661410073	0
38	1953292	203.716239814	0
38	1954431	203.832926213	0
38	1956934	204.101538285	0
38	1957170	204.119506269	0
38	1957528	204.149182967	0
38	1958163	204.194416225	0
38	1959474	204.273586351	0
38	1962460	204.451650758	0
38	1963176	204.496193153	0
38	1968583	204.925343184	0
38	1968883	204.947788005	0
38	1971067	205.123007916	0
38	1973981	205.362379714	0
38	1974166	205.379046195	0
38	1974496	205.413818672	0
38	1975632	205.550762478	0
38	1977584	205.764167456	1
38	1978276	205.833887282	0
38	1979598	205.968834296	0
38	1979877	206.002724183	0
38	1980235	206.048508371	0
38	1980249	206.050878003	0
38	1980988	206.147954826	0
38	1981372	206.192046149	0
38	1982219	206.281438391	0
38	1984642	206.517211911	0
38	1986037	206.622684431	0
38	1987774	206.724937282	0
38	1987912	206.736277834	0
38	1994515	207.178019314	0
38	1995310	207.231574988	0
38	1996642	207.319792069	0
38	1999517	207.56560372	1
38	1999923	207.605276136	0
38	2001481	207.792913018	0
38	2001577	207.806439011	1
38	2001940	207.845585446	0
38	2003371	207.992659983	0
38	2003654	208.01712291	0
38	2003809	208.03663158	0
38	2004316	208.082068393	0
38	2006223	208.27092593	0
38	2007783	208.460177053	0
38	2008044	208.488266129	0
38	2008693	208.559939717	1
38	2011042	208.804799977	0
38	2011168	208.816827286	0
38	2011904	208.899830365	0
38	2013237	209.018376066	0
38	2013380	209.028821525	1
38	2013426	209.03098923	0
38	2014096	209.089959574	0
38	2014194	209.098169764	0
38	2014197	209.098443242	0
38	2014975	209.158243218	0
38	2015534	209.202268763	0
38	2019686	209.549722768	0
38	2026592	210.052147718	0
38	2027716	210.140875001	0
38	2027722	210.1412606	1
38	2029526	210.296123944	0
38	2029591	210.300380994	4
38	2031546	210.468159121	1
38	2032464	210.559588199	0
38	2034276	210.782546357	0
38	2034459	210.812409677	0
38	2035043	210.90972505	0
38	2035655	211.014353962	0
38	2035857	211.045854511	0
38	2037021	211.203069936	0
38	2037981	211.296463996	0
38	2037994	211.297476351	0
38	2038202	211.313565548	0
38	2038446	211.334318309	0
38	2040005	211.475916862	0
38	2042814	211.718491871	0
38	2043024	211.736695085	1
38	2043251	211.751588265	0
38	2043646	211.78832794	0
38	2044172	211.826558053	4
38	2044441	211.847456305	0
38	2045190	211.922789136	0
38	2045896	212.002251151	0
38	2046420	212.095301432	0
38	2046563	212.115353107	0
38	2046754	212.138224958	1
38	2046805	212.145332717	0
38	2047629	212.246955034	0
38	2049589	212.398673449	0
38	2053951	212.743102747	0
38	2054077	212.753320954	0
38	2056790	212.970729121	0
38	2056879	212.977732314	0
38	2057929	213.059615214	1
38	2058935	213.141145132	0
38	2061965	213.343759109	0
38	2063753	213.457033791	0
38	2067458	213.910845765	1
38	2067805	213.98250657	0
38	2068030	214.030621994	0
38	2069276	214.227265541	0
38	2069868	214.290329065	0
38	2069899	214.295199024	0
38	2071181	214.404406884	4
38	2071370	214.414932291	0
38	2071700	214.435966771	0
38	2076609	214.830434377	0
38	2077501	214.894968701	0
38	2077982	214.926002375	1
38	2078710	214.975983656	0
38	2078795	214.982762914	0
38	2083769	215.391480713	0
38	2083861	215.403498135	1
38	2086218	215.59982652	0
38	2086435	215.618645496	2
38	2086474	215.620307309	0
38	2086809	215.652915115	0
38	2088498	215.799894289	0
38	2092294	216.10662628	0
38	2095003	216.345388072	4
38	2095101	216.34913887	1
38	2097168	216.512738837	0
38	2097681	216.559599405	0
38	2097778	216.568806312	0
38	2098173	216.602919103	0
38	2099971	216.786647403	1
38	2100626	216.84901043	3
38	2103998	217.087565533	1
38	2104409	217.11559827	0
38	2110759	217.490787571	0
38	2111555	217.55080722	0
38	2112333	217.615096424	0
38	2112756	217.650373165	0
38	2114429	217.817310636	0
38	2115873	217.974820866	0
38	2116952	218.109890713	0
38	2117809	218.206705576	0
38	2118731	218.311463876	0
38	2119297	218.370430679	0
38	2119761	218.41448457	0
38	2121021	218.548129033	0
38	2121371	218.579374039	0
38	2123345	218.767699478	0
38	2123677	218.795870545	1
38	2124628	218.872295099	0
38	2127923	219.108677392	1
38	2129540	219.230193505	0
38	2131971	219.409549712	0
38	2133242	219.492570881	0
38	2136251	219.707295974	0
38	2137211	219.785918641	0
38	2137693	219.82076247	0
38	2139160	219.928326258	0
38	2141317	220.100378348	0
38	2143705	220.292189815	0
38	2148348	220.653880042	0
38	2149055	220.706530896	0
38	2149869	220.756659146	0
38	2150552	220.81629076	1
38	2152016	220.953831138	0
38	2152912	221.045867711	0
38	2154555	221.19021259	0
38	2158068	221.451258294	1
38	2158741	221.49079	0
38	2159043	221.511984659	0
38	2163167	221.793678417	0
38	2163574	221.821476204	0
38	2164116	221.848197843	0
38	2166189	221.999939725	2
38	2166407	222.017284821	0
38	2168147	222.152211349	0
38	2172729	222.475670445	0
38	2173384	222.522608184	0
38	2176108	222.722191776	0
38	2177941	222.872979435	0
38	2179469	222.991711886	0
38	2180247	223.054491506	0
38	2181162	223.122194876	0
38	2181535	223.147434666	0
38	2181954	223.1818991	0
38	2182052	223.187841455	0
38	2186810	223.549694794	6
38	2191304	223.855214869	0
38	2191596	223.875663855	0
38	2191661	223.880607263	0
38	2192145	223.901255966	0
38	2193219	223.957410888	3
38	2194859	224.049330511	0
38	2196198	224.143828237	0
38	2197158	224.205097539	1
38	2198620	224.282739039	0
38	2199982	224.343890551	0
38	2200277	224.35928155	0
38	2202223	224.466249229	2
38	2202557	224.48607325	0
38	2202960	224.511397458	0
38	2203109	224.521278969	1
38	2203901	224.578193799	0
38	2206948	224.854781751	0
38	2207289	224.887534168	2
38	2211436	225.229843123	0
38	2211700	225.246018802	1
38	2211919	225.260651399	0
38	2214548	225.418052584	0
38	2215107	225.461478947	0
38	2216412	225.576786845	0
38	2216966	225.625723607	0
38	2217810	225.701393267	0
38	2217937	225.710946724	0
38	2218183	225.733200963	0
38	2219263	225.820929343	0
38	2220101	225.89361424	0
38	2220328	225.915434645	6
38	2222129	226.063944577	0
38	2222329	226.082143126	0
38	2222669	226.106570539	2
38	2222822	226.115569273	0
38	2227615	226.575413786	0
38	2228215	226.655522852	1
38	2228719	226.72637332	0
38	2230069	226.942767282	0
38	2230411	226.993639073	0
38	2231042	227.076607682	1
38	2231084	227.079731898	1
38	2231582	227.143936464	0
38	2232399	227.249060418	0
38	2232600	227.2796708	0
38	2233771	227.438786565	0
38	2234182	227.491504605	0
38	2234289	227.503312833	0
38	2234597	227.545830991	0
38	2235106	227.613039703	0
38	2235827	227.719151629	1
38	2235912	227.729141335	0
38	2236230	227.774207642	0
38	2236656	227.823838078	0
38	2237229	227.889417865	0
38	2237568	227.933694641	0
38	2241002	228.243292374	2
38	2243090	228.388162098	0
38	2243422	228.414815596	0
38	2246207	228.689463103	0
38	2248630	228.973943295	0
38	2249026	229.012222455	0
38	2253117	229.389676092	0
38	2253849	229.457472466	2
38	2255241	229.590390421	0
38	2257016	229.753286213	6
38	2258167	229.852298832	0
38	2261116	230.143104681	0
38	2261255	230.160007696	0
38	2266279	230.693946064	0
38	2267967	230.825309448	0
38	2268474	230.855927448	0
38	2269863	230.951031527	0
38	2271610	231.067962975	0
38	2271826	231.0825269	0
38	2273457	231.20116115	1
38	2274448	231.274599731	0
38	2274633	231.287072875	0
38	2276803	231.489780266	0
38	2278671	231.641599213	0
38	2282356	231.930037464	0
38	2287102	232.412269595	0
38	2287271	232.43102681	4
38	2287342	232.43549863	0
38	2288255	232.511905829	0
38	2289059	232.58138998	0
38	2290928	232.728744001	0
38	2291602	232.779008868	0
38	2292006	232.808686709	0
38	2293642	232.913554601	0
38	2296667	233.096996744	0
38	2297583	233.151358792	0
38	2298350	233.200481348	2
38	2298820	233.227533522	0
38	2302547	233.479309572	0
38	2303251	233.554095991	0
38	2305836	233.792014206	0
38	2306883	233.885723422	2
38	2307922	233.985957788	0
38	2312901	234.484674394	0
38	2314320	234.619710062	0
38	2314639	234.648291785	0
38	2316553	234.831301752	0
38	2317163	234.895350907	0
38	2318365	235.008994147	0
38	2319562	235.126467761	0
38	2319804	235.151627475	0
38	2320539	235.219258961	0
38	2321361	235.283922922	2
38	2321736	235.324202244	0
38	2321862	235.334406961	0
38	2324936	235.617018072	0
38	2325197	235.646275603	0
38	2325915	235.741493433	0
38	2328121	236.047873354	0
38	2328360	236.07284785	0
38	2328624	236.095643443	0
38	2328691	236.101984638	0
38	2332224	236.40196514	0
38	2332932	236.465908615	0
38	2333591	236.542025617	0
38	2333802	236.568036012	4
38	2334824	236.669655161	0
38	2335676	236.760406846	1
38	2336246	236.812071799	0
38	2337229	236.964703021	0
38	2337601	237.010394429	0
38	2338122	237.070712402	5
38	2338487	237.111806029	1
38	2340093	237.270007266	1
38	2341166	237.371799307	0
38	2341533	237.399911905	0
38	2346677	237.834445194	0
38	2348690	237.986359628	0
38	2348993	238.01654736	0
38	2349927	238.101259278	0
38	2350898	238.195278817	1
38	2351509	238.253664351	2
38	2352540	238.315392375	0
38	2352587	238.318387422	0
38	2354455	238.453579664	7
38	2356428	238.552354761	0
38	2359536	238.695693018	0
38	2360530	238.74529524	0
38	2364313	238.927335567	0
38	2364392	238.931749859	0
38	2366543	239.034871767	0
38	2369027	239.162491807	0
38	2372541	239.360195081	0
38	2375522	239.574999214	3
38	2376936	239.672762263	0
38	2378985	239.794876987	1
38	2379073	239.798190573	0
38	2379441	239.818260127	0
38	2379843	239.841122206	2
38	2381065	239.908305147	0
38	2386209	240.194959034	2
38	2390269	240.417013653	0
38	2392779	240.548512765	0
38	2394045	240.63051774	0
38	2395037	240.692608438	0
38	2396163	240.777612493	0
38	2397007	240.856078843	2
38	2400096	241.156959419	0
38	2400307	241.176881812	0
38	2401284	241.278964842	0
38	2403975	241.486076191	0
38	2404789	241.549973365	1
38	2405119	241.571631202	0
38	2405492	241.600155856	0
38	2410530	241.87360134	0
38	2410539	241.874365443	0
38	2410993	241.895697949	0
38	2411618	241.933107234	0
38	2412880	242.010535305	0
38	2413780	242.062980023	0
38	2413927	242.072182092	0
38	2414142	242.084212782	2
38	2414485	242.104603186	0
38	2416610	242.242950408	0
38	2418024	242.328207553	2
38	2421230	242.55425279	0
38	2423717	242.749414013	1
38	2423851	242.758748557	0
38	2425097	242.864443821	3
38	2425467	242.892374431	0
38	2429629	243.221542518	1
38	2431281	243.352227818	0
38	2431636	243.378629603	0
38	2432543	243.447596113	0
38	2435499	243.690177322	0
38	2435686	243.700688712	0
38	2438431	243.872080867	0
38	2438886	243.89856104	2
38	2439450	243.930290444	0
38	2442263	244.095915997	0
38	2443431	244.168431654	0
38	2444266	244.224053006	0
38	2447243	244.441723835	0
38	2448499	244.558925271	0
38	2449030	244.609663998	0
38	2449529	244.662151793	1
38	2450818	244.803234563	0
38	2452153	245.004234364	0
38	2452650	245.0931024	0
38	2453162	245.182310145	0
38	2453891	245.298081644	0
38	2454541	245.39047656	0
38	2456363	245.571417914	0
38	2459492	245.81429542	0
38	2459741	245.835552963	0
38	2462965	246.143288726	2
38	2463664	246.227567915	0
38	2463850	246.253574962	0
38	2464516	246.335090357	0
38	2465188	246.420370554	0
38	2465401	246.451986586	0
38	2466645	246.586649362	0
38	2469639	246.813247017	2
38	2469917	246.827960546	0
38	2474009	247.125985182	0
38	2474979	247.232435686	0
38	2475016	247.236219556	0
38	2475128	247.246831711	0
38	2476968	247.429348348	0
38	2479303	247.615343214	0
38	2480325	247.691235059	0
38	2480607	247.71849272	0
38	2484433	248.137796913	0
38	2484538	248.153906971	0
38	2484730	248.177097485	0
38	2488140	248.46090836	0
38	2488522	248.48807963	0
38	2488960	248.526153723	0
38	2491069	248.709095595	0
38	2491292	248.736814358	0
38	2492868	248.921696013	0
38	2493659	249.007479298	0
38	2494256	249.071492523	0
38	2494432	249.092363418	0
38	2494543	249.101277369	0
38	2496315	249.278187419	0
38	2497940	249.398618355	0
38	2498825	249.454039447	0
38	2501181	249.602802823	0
38	2506415	249.99012996	1
38	2509871	250.208878803	2
38	2511623	250.295130653	2
38	2512249	250.331918582	0
38	2512868	250.360443296	0
38	2516192	250.537018681	0
38	2519541	250.738268941	2
38	2524520	251.09560709	0
38	2527711	251.346087534	0
38	2529339	251.471905662	0
38	2530348	251.564254244	0
38	2541762	252.714127607	1
38	2549334	253.501725722	3
38	2556436	253.998578831	0
38	2559323	254.246754557	0
38	2563906	254.612625608	0
38	2569700	255.162054908	6
38	2576475	255.950943908	0
38	2585766	257.039759482	0
38	2592053	257.755661629	0
38	2592987	257.856448968	2
38	2594873	258.03227066	6
38	2602249	258.521875138	0
38	2609091	258.919149271	5
38	2610367	259.000207715	0
38	2610523	259.011590285	3
38	2622889	259.924627409	1
38	2626003	260.250667645	2
38	2627934	260.407083051	0
38	2639833	261.38362862	2
38	2650257	262.477884472	0
38	2651862	262.698932455	1
38	2658123	263.31445632	3
38	2674542	264.710076139	2
38	2679420	265.113333698	0
38	2704878	267.16147898	7
38	2705656	267.207864074	0
38	2711923	267.667938011	0
38	2712838	267.747467348	0
38	2718417	268.295142427	2
38	2719840	268.415639656	1
38	2724981	268.826652584	2
38	2725101	268.833221561	2
38	2725216	268.83697577	0
38	2743959	270.594248265	0
38	2747728	270.899917606	0
38	2757492	271.692831797	0
38	2768330	272.401721702	0
38	2778375	273.492976683	2
38	2780999	273.777323957	0
38	2781502	273.840044015	0
38	2787234	274.304819582	1
38	2792014	274.647607881	0
38	2818535	277.084907025	0
38	2820064	277.273073126	0
38	2835737	278.66244223	0
38	2836296	278.705071335	2
38	2836832	278.747867789	1
38	2841605	279.13530779	0
38	2842955	279.245394179	2
38	2846229	279.507198027	0
38	2858305	280.602420761	0
38	2859279	280.760553014	1
38	2859671	280.830472784	3
38	2865803	281.435949198	0
38	2866152	281.469463245	1
38	2867472	281.592075371	0
38	2878188	282.538390775	0
38	2882668	282.889437351	0
38	2884847	283.031382218	1
38	2895343	284.072974358	3
38	2895885	284.132395567	0
38	2901281	284.460481466	1
38	2914708	285.406002313	0
38	2919081	285.899700679	1
38	2921241	286.107292582	0
38	2935176	287.577662646	2
38	2939875	287.969372082	0
38	2943601	288.277131486	1
38	2952437	289.056928093	1
38	2961734	290.051221396	2
38	2962867	290.138991227	0
38	2975007	291.174490122	3
38	2980344	291.649969188	1
38	2987075	292.29903114	2
38	2987988	292.421603233	0
38	2992124	293.049234146	2
38	2997057	293.503694619	0
38	3008707	294.737941963	0
38	3011931	295.098712096	0
38	3016509	295.454839543	0
38	3019387	295.648784228	2
38	3026275	296.205230359	0
38	3033405	296.902936324	3
38	3040024	297.424600248	0
38	3066502	300.016892294	0
38	3069594	300.286142219	0
38	3073887	300.635095342	0
38	3078674	300.978789587	0
38	3078696	300.981043783	0
38	3086772	301.583865536	3
38	3086920	301.590988092	0
38	3091663	301.921753447	0
38	3093434	302.032078485	0
38	3093688	302.048582289	0
38	3094415	302.106747162	0
38	3094551	302.117771606	0
38	3097550	302.322380403	0
38	3097849	302.34348366	0
38	3099136	302.461810776	0
38	3100832	302.647779633	0
38	3101352	302.699246722	0
38	3103183	302.88597191	0
38	3103397	302.910669049	0
38	3104531	303.023972922	0
38	3104952	303.055928157	0
38	3106933	303.205247684	0
38	3108132	303.303113044	2
38	3108460	303.323450986	0
38	3110081	303.444388671	4
38	3113264	303.659646847	0
38	3113285	303.661410073	0
38	3115405	303.815129713	2
38	3115515	303.816741448	0
38	3115780	303.832926213	0
38	3119178	304.101538285	0
38	3119435	304.119506269	0
38	3119915	304.149182967	0
38	3120552	304.194416225	1
38	3123431	304.451650758	0
38	3124912	304.597495984	0
38	3125439	304.651044369	0
38	3127822	304.925343184	0
38	3128057	304.947788005	2
38	3130124	305.123007916	0
38	3133107	305.362379714	0
38	3133335	305.379046195	0
38	3133807	305.413818672	0
38	3135882	305.550762478	0
38	3139070	305.764167456	0
38	3140035	305.833887282	0
38	3142780	306.002724183	0
38	3143746	306.050878003	0
38	3145394	306.147954826	0
38	3146208	306.192046149	2
38	3146475	306.208324049	1
38	3149353	306.402146553	2
38	3151061	306.517211911	0
38	3152386	306.622684431	0
38	3153468	306.724937282	0
38	3153593	306.736277834	0
38	3158479	307.231574988	0
38	3159788	307.319792069	1
38	3159878	307.328741345	1
38	3159930	307.331715951	2
38	3163711	307.56560372	0
38	3164388	307.605276136	0
38	3164497	307.613602325	3
38	3165602	307.682017576	0
38	3167706	307.792913018	0
38	3168029	307.806439011	0
38	3168884	307.845585446	0
38	3171318	307.992659983	0
38	3171743	308.01712291	0
38	3172018	308.03663158	0
38	3172739	308.082068393	2
38	3175651	308.27092593	0
38	3178488	308.460177053	0
38	3178943	308.488266129	0
38	3180077	308.559939717	3
38	3181543	308.640059854	1
38	3184277	308.804799977	0
38	3184501	308.816827286	0
38	3185711	308.899830365	0
38	3187234	309.018376066	0
38	3187363	309.028821525	1
38	3187396	309.03098923	0
38	3188092	309.085412155	2
38	3188170	309.089959574	0
38	3188276	309.098169764	0
38	3189059	309.158243218	0
38	3189744	309.202268763	0
38	3193443	309.549722768	0
38	3200463	310.097487544	2
38	3200864	310.140875001	0
38	3202606	310.296123944	0
38	3205786	310.559588199	0
38	3208743	310.782546357	0
38	3209139	310.812409677	0
38	3210020	310.90972505	0
38	3210768	311.014353962	0
38	3210984	311.045854511	0
38	3212109	311.203069936	0
38	3212693	311.296463996	0
38	3212709	311.297476351	1
38	3212983	311.334318309	0
38	3214260	311.475916862	0
38	3216775	311.718491871	0
38	3216960	311.736695085	0
38	3217124	311.751588265	0
38	3217565	311.78832794	0
38	3219287	311.922789136	0
38	3220179	312.002251151	0
38	3221094	312.095301432	0
38	3221332	312.115353107	0
38	3221702	312.145332717	0
38	3222084	312.177264809	0
38	3222931	312.246955034	0
38	3224879	312.398673449	0
38	3229406	312.743102747	0
38	3229530	312.753320954	0
38	3232271	312.967668355	0
38	3232307	312.970729121	0
38	3232379	312.977732314	0
38	3233266	313.059615214	0
38	3234141	313.141145132	0
38	3236974	313.455582891	0
38	3236987	313.457033791	0
38	3241654	313.910845765	0
38	3242489	313.98250657	0
38	3243077	314.030621994	0
38	3245279	314.227265541	0
38	3245977	314.275593416	2
38	3246155	314.290329065	0
38	3246233	314.295199024	0
38	3247823	314.404406884	0
38	3248004	314.414932291	0
38	3248301	314.435966771	0
38	3253765	314.830434377	0
38	3254083	314.854488505	2
38	3255006	314.926002375	0
38	3255665	314.975983656	0
38	3255760	314.982762914	0
38	3261376	315.391480713	0
38	3262715	315.50472741	2
38	3263973	315.59982652	0
38	3264244	315.620307309	5
38	3264699	315.652915115	0
38	3266673	315.799894289	0
38	3269505	316.10662628	0
38	3271466	316.345388072	0
38	3271475	316.34913887	1
38	3273100	316.512738837	0
38	3273628	316.559599405	0
38	3273738	316.568806312	0
38	3274118	316.602919103	0
38	3276119	316.786647403	0
38	3276753	316.838145893	3
38	3276913	316.84901043	0
38	3280036	317.087565533	0
38	3280436	317.11559827	0
38	3284963	317.490787571	0
38	3285653	317.55080722	0
38	3286300	317.615096424	0
38	3286729	317.650373165	0
38	3289102	317.817310636	0
38	3291159	317.974820866	0
38	3292386	318.109890713	0
38	3293243	318.206705576	0
38	3294661	318.370430679	0
38	3294999	318.41448457	0
38	3296165	318.548129033	0
38	3297624	318.737349613	3
38	3298244	318.795870545	0
38	3298795	318.872295099	0
38	3300740	319.108677392	0
38	3301052	319.148772189	3
38	3302035	319.230193505	0
38	3304983	319.409549712	1
38	3309889	319.707295974	0
38	3311127	319.785918641	0
38	3311604	319.82076247	0
38	3313235	319.928326258	0
38	3315841	320.100378348	0
38	3317992	320.292189815	0
38	3319073	320.405281305	2
38	3322040	320.653880042	0
38	3322731	320.706530896	0
38	3323171	320.756659146	0
38	3324984	320.953831138	1
38	3325940	321.045867711	0
38	3331215	321.451258294	0
38	3331624	321.49079	3
38	3331883	321.511984659	0
38	3335178	321.793678417	0
38	3335509	321.821476204	0
38	3335866	321.848197843	0
38	3337805	321.999939725	0
38	3338036	322.017284821	0
38	3339312	322.152211349	0
38	3342694	322.455991689	3
38	3343035	322.475670445	0
38	3343673	322.522608184	0
38	3345807	322.667688005	5
38	3346766	322.722191776	2
38	3349000	322.872979435	0
38	3350596	322.991711886	0
38	3351519	323.054491506	0
38	3352559	323.122194876	0
38	3352907	323.147434666	0
38	3353377	323.1818991	0
38	3353418	323.187841455	0
38	3359112	323.549694794	0
38	3362586	323.819966155	0
38	3363078	323.855214869	0
38	3363395	323.875663855	0
38	3363445	323.880607263	0
38	3364480	323.957410888	0
38	3365454	324.015968701	1
38	3365939	324.049330511	0
38	3368263	324.205097539	0
38	3370298	324.343890551	0
38	3370482	324.35928155	0
38	3371842	324.466249229	0
38	3372100	324.48607325	2
38	3372490	324.511397458	0
38	3374723	324.697407721	1
38	3376861	324.854781751	0
38	3379728	325.02749378	0
38	3382852	325.229843123	2
38	3383466	325.260651399	0
38	3386151	325.418052584	0
38	3386794	325.461478947	0
38	3388417	325.576786845	0
38	3389125	325.625723607	0
38	3390175	325.701393267	0
38	3390270	325.710946724	0
38	3390529	325.733200963	3
38	3391750	325.820929343	0
38	3392532	325.89361424	0
38	3392803	325.915434645	0
38	3394478	326.063944577	0
38	3394729	326.082143126	0
38	3395068	326.106570539	0
38	3395203	326.115569273	1
38	3398233	326.334050301	1
38	3402833	326.575413786	0
38	3404165	326.655522852	0
38	3405430	326.72637332	0
38	3408635	326.912309094	1
38	3409109	326.942767282	0
38	3409845	326.993639073	0
38	3409871	326.995675613	4
38	3410771	327.076607682	0
38	3410823	327.079731898	0
38	3412997	327.249060418	0
38	3413458	327.2796708	0
38	3414170	327.344254909	0
38	3415277	327.438786565	0
38	3415876	327.491504605	0
38	3416005	327.503312833	0
38	3416418	327.545830991	1
38	3417160	327.613039703	1
38	3418252	327.719151629	0
38	3418343	327.729141335	0
38	3418739	327.774207642	0
38	3419196	327.823838078	0
38	3419973	327.889417865	0
38	3420493	327.933694641	2
38	3423251	328.243292374	0
38	3425395	328.414815596	0
38	3429070	328.689463103	0
38	3431655	328.973943295	0
38	3431996	329.012222455	3
38	3434113	329.238212401	3
38	3435797	329.389676092	0
38	3436674	329.457472466	0
38	3438292	329.590390421	0
38	3440282	329.753286213	0
38	3441669	329.852298832	0
38	3446350	330.160007696	0
38	3456304	330.855927448	0
38	3457497	330.951031527	0
38	3458954	331.067962975	0
38	3459107	331.0825269	0
38	3460287	331.20116115	0
38	3461091	331.274599731	0
38	3461212	331.287072875	0
38	3463978	331.489780266	0
38	3466559	331.641599213	0
38	3470118	331.930037464	0
38	3474711	332.412269595	0
38	3474910	332.43549863	0
38	3475899	332.58138998	0
38	3476846	332.728744001	0
38	3477235	332.779008868	0
38	3478154	332.886516635	3
38	3478441	332.913554601	0
38	3480160	333.096996744	0
38	3480676	333.151358792	0
38	3481104	333.200481348	0
38	3481360	333.227533522	0
38	3484018	333.479309572	0
38	3484862	333.554095991	0
38	3487513	333.792014206	0
38	3488473	333.885723422	0
38	3489553	333.985957788	0
38	3494987	334.484674394	0
38	3496644	334.619710062	0
38	3496974	334.648291785	0
38	3499058	334.831301752	0
38	3499795	334.895350907	0
38	3501599	335.008994147	0
38	3502496	335.061768355	1
38	3503506	335.126467761	0
38	3503928	335.151627475	0
38	3504584	335.19522429	5
38	3504980	335.219258961	0
38	3506804	335.324202244	0
38	3506958	335.334406961	0
38	3511936	335.617018072	1
38	3512427	335.646275603	0
38	3513880	335.741493433	0
38	3515212	335.857026495	2
38	3517259	336.047873354	0
38	3517469	336.07284785	0
38	3517693	336.095643443	0
38	3517783	336.101984638	0
38	3518457	336.17218656	0
38	3520950	336.40196514	0
38	3521683	336.465908615	0
38	3522870	336.542025617	0
38	3523273	336.568036012	0
38	3524681	336.669655161	0
38	3525989	336.760406846	2
38	3528939	336.964703021	3
38	3529441	337.010394429	0
38	3529510	337.015881967	0
38	3530109	337.070712402	0
38	3530469	337.111806029	0
38	3531801	337.270007266	0
38	3532617	337.371799307	0
38	3532812	337.399911905	0
38	3536993	337.834445194	0
38	3538370	337.986359628	0
38	3539718	338.101259278	0
38	3541439	338.253664351	0
38	3542275	338.315392375	0
38	3544308	338.552354761	2
38	3545270	338.695693018	0
38	3545613	338.745278008	1
38	3545656	338.74529524	0
38	3547704	338.927335567	0
38	3547751	338.931749859	0
38	3549104	339.034871767	0
38	3551029	339.162491807	0
38	3554478	339.360195081	0
38	3559560	339.672762263	4
38	3561319	339.794876987	0
38	3562516	339.87970742	2
38	3562906	339.908305147	0
38	3567680	340.194959034	0
38	3571819	340.417013653	0
38	3573875	340.548512765	0
38	3575165	340.63051774	0
38	3575947	340.692608438	0
38	3576835	340.777612493	0
38	3577821	340.856078843	0
38	3581844	341.156959419	0
38	3582048	341.176881812	1
38	3583240	341.278964842	0
38	3585507	341.486076191	0