version 2
run KademliaDHT-10-20211202-22:27:23-9356
attr Lifetime 5000s
attr configname KademliaDHT
attr datetime 20211202-22:27:23
attr experiment KademliaDHT
attr inifile configs.ini
attr iterationvars $Lifetime=5000s
attr iterationvars2 "$Lifetime=5000s, $repetition=0"
attr measurement $Lifetime=5000s
attr network oversim.underlay.simpleunderlay.SimpleUnderlayNetwork
attr processid 9356
attr repetition 0
attr replication #0
attr resultdir results
attr runnumber 10
attr seedset 10

vector 71  SimpleUnderlayNetwork.globalObserver.globalStatistics  "GlobalNodeList: Number of nodes"  ETV
vector 72  SimpleUnderlayNetwork.globalObserver.globalStatistics  "GlobalDhtTestMap: Number of stored DHT entries"  ETV
vector 73  SimpleUnderlayNetwork.globalObserver.globalStatistics  "Kademlia: Buckets Refreshed Per Task"  ETV
vector 74  SimpleUnderlayNetwork.globalObserver.globalStatistics  "LifetimeChurn: Session Time"  ETV
vector 75  SimpleUnderlayNetwork.globalObserver.globalStatistics  "LifetimeChurn: Time between creates"  ETV
vector 76  SimpleUnderlayNetwork.globalObserver.globalStatistics  "LifetimeChurn: Time between deletes"  ETV
71	1459196	150	502
71	2206462	200	502
71	2941556	250	502
71	3685324	300	499
71	4417932	350	501
71	5144120	400	500
71	5868014	450	499
71	6589311	500	498
71	7309232	550	505
71	8044166	600	506
71	8758003	650	505
71	9468422	700	507
71	10191800	750	509
71	10921153	800	511
71	11647815	850	514
71	12394495	900	513
71	13095681	950	510
71	13804562	1000	509
71	14541806	1050	512
71	15285117	1100	516
72	1459197	150	779
72	1597882	160	878
72	1754153	170	962
72	1913219	180	1028
72	2068909	190	1100
72	2206463	200	1177
72	2353885	210	1278
72	2496745	220	1376
72	2636227	230	1454
72	2792792	240	1517
72	2941557	250	1595
72	3078270	260	1674
72	3231030	270	1763
72	3384118	280	1871
72	3532874	290	1942
72	3685325	300	2014
72	3828970	310	2096
72	3967230	320	2180
72	4126454	330	2270
72	4270508	340	2358
72	4417933	350	2430
72	4579105	360	2508
72	4717633	370	2512
72	4846333	380	2491
72	5002943	390	2474
72	5144121	400	2457
72	5297011	410	2469
72	5451333	420	2484
72	5591715	430	2489
72	5727917	440	2490
72	5868015	450	2472
72	6001596	460	2459
72	6166207	470	2465
72	6319656	480	2479
72	6444338	490	2472
72	6589312	500	2483
72	6738009	510	2464
72	6881305	520	2455
72	7035205	530	2464
72	7178839	540	2475
72	7309233	550	2486
72	7457297	560	2486
72	7604497	570	2483
72	7743895	580	2462
72	7903891	590	2479
72	8044167	600	2482
72	8183180	610	2482
72	8333015	620	2483
72	8468084	630	2478
72	8602961	640	2478
72	8758004	650	2488
72	8904470	660	2477
72	9034813	670	2486
72	9183230	680	2493
72	9322761	690	2485
72	9468423	700	2496
72	9622867	710	2484
72	9761558	720	2495
72	9905574	730	2501
72	10040664	740	2500
72	10191801	750	2499
72	10348557	760	2490
72	10499200	770	2495
72	10636805	780	2496
72	10784836	790	2512
72	10921154	800	2515
72	11064664	810	2504
72	11208651	820	2500
72	11362775	830	2507
72	11512590	840	2524
72	11647816	850	2520
72	11798308	860	2516
72	11947547	870	2519
72	12094505	880	2508
72	12238496	890	2512
72	12394496	900	2537
72	12525014	910	2528
72	12664765	920	2527
72	12800935	930	2520
72	12949428	940	2515
72	13095682	950	2524
72	13245122	960	2535
72	13378030	970	2531
72	13518368	980	2526
72	13660895	990	2533
72	13804563	1000	2525
72	13950626	1010	2529
72	14111300	1020	2552
72	14241290	1030	2537
72	14374169	1040	2530
72	14541807	1050	2534
72	14687470	1060	2540
72	14855260	1070	2550
72	14999491	1080	2552
72	15144202	1090	2558
72	15285118	1100	2541
72	15435937	1110	2559
72	15578471	1120	2549
72	15747129	1130	2553
72	15840359	1140	2525
73	1460134	150.045874457	0
73	1462140	150.150665364	0
73	1467148	150.518478324	0
73	1467496	150.542315744	0
73	1468667	150.621600458	0
73	1468913	150.638471492	0
73	1469640	150.689487538	0
73	1470462	150.755123146	0
73	1482176	151.784426813	0
73	1496818	152.835202735	0
73	1498084	152.910561543	0
73	1576179	158.75882581	0
73	1586334	159.354960227	2
73	1650192	163.40667265	0
73	1669865	164.652565793	0
73	1782286	172.229123254	0
73	1849460	176.345535096	0
73	1894952	179.040263814	2
73	1900931	179.301950393	0
73	1922709	180.564102895	0
73	1934830	181.222673254	1
73	2143320	195.808625331	0
73	2158140	196.656357854	0
73	2206602	200.006955504	0
73	2210458	200.280645634	3
73	2222248	200.997626832	0
73	2234625	201.862478688	0
73	2235657	201.944395386	0
73	2239005	202.243629675	0
73	2240891	202.392694123	0
73	2242436	202.506777594	0
73	2242750	202.526045778	0
73	2244488	202.647414186	0
73	2244489	202.647668131	0
73	2244539	202.650636503	0
73	2244624	202.657158704	0
73	2245584	202.726852583	0
73	2245757	202.739212573	0
73	2247675	202.873734916	0
73	2247850	202.885732642	0
73	2249810	203.010512164	0
73	2251061	203.083142495	0
73	2252263	203.148706736	0
73	2253455	203.212604717	0
73	2258146	203.486524955	0
73	2259076	203.549986694	0
73	2259689	203.597778566	0
73	2260006	203.622976662	0
73	2260615	203.669946266	0
73	2262987	203.842802745	0
73	2263322	203.877063476	0
73	2270874	204.391848365	0
73	2271979	204.478117117	0
73	2272029	204.482511021	0
73	2272090	204.488346325	0
73	2272591	204.533659334	0
73	2273837	204.655049685	0
73	2274538	204.724321763	0
73	2275661	204.833097413	0
73	2275822	204.852255975	0
73	2276431	204.911768272	0
73	2278194	205.061504493	1
73	2278989	205.12561251	0
73	2279583	205.16791634	0
73	2280468	205.234533666	0
73	2280849	205.265343888	0
73	2281089	205.287629995	0
73	2281838	205.343100515	0
73	2286447	205.642770568	0
73	2287906	205.734690902	0
73	2288218	205.755371106	0
73	2290641	205.896245175	0
73	2293711	206.081171474	0
73	2294343	206.121738312	0
73	2296832	206.273734284	0
73	2300874	206.564045017	0
73	2300984	206.571439899	0
73	2301235	206.587891046	0
73	2303251	206.722732842	0
73	2306341	206.906698895	0
73	2308326	207.021384144	0
73	2313320	207.352249788	0
73	2314822	207.461018659	0
73	2315244	207.494340682	0
73	2315245	207.49435238	0
73	2315757	207.539014426	0
73	2316324	207.587310706	0
73	2316611	207.609362307	0
73	2317577	207.696080902	0
73	2318367	207.765571707	0
73	2320242	207.901330767	0
73	2322335	208.023487412	0
73	2325824	208.19443937	0
73	2327905	208.290042168	0
73	2330559	208.428767304	0
73	2331556	208.484936742	0
73	2332985	208.578046081	0
73	2333103	208.585901013	0
73	2333407	208.605009103	0
73	2333483	208.610007527	0
73	2334260	208.661740468	0
73	2334411	208.674566933	0
73	2336844	208.865221432	0
73	2338816	209.031006791	0
73	2340895	209.200412361	0
73	2343316	209.360467113	0
73	2343821	209.393898459	0
73	2345640	209.503919258	0
73	2346279	209.540509264	0
73	2347799	209.629258188	0
73	2351059	209.817389176	0
73	2354273	210.022699071	0
73	2356218	210.139818532	0
73	2360481	210.385856731	0
73	2360941	210.415130302	0
73	2361317	210.43739469	0
73	2361464	210.447332368	0
73	2363738	210.616157764	0
73	2366083	210.788061561	0
73	2366296	210.807419243	0
73	2366925	210.858790283	0
73	2369174	211.058155543	0
73	2369853	211.116566674	0
73	2370179	211.146936119	0
73	2371235	211.244094537	0
73	2372051	211.324048726	0
73	2372074	211.325287648	0
73	2372523	211.365045883	0
73	2374302	211.550815483	0
73	2375665	211.650602012	0
73	2377720	211.776704125	0
73	2378334	211.809139848	0
73	2379368	211.870479348	0
73	2382168	212.035982003	0
73	2384127	212.144369073	0
73	2385115	212.206747224	0
73	2387768	212.371251202	0
73	2389838	212.486413062	0
73	2390713	212.535050837	0
73	2394549	212.775444464	0
73	2398024	212.997357676	0
73	2399743	213.106939569	0
73	2400013	213.12777697	0
73	2400193	213.144031961	0
73	2400221	213.148068597	0
73	2400499	213.173149107	0
73	2401066	213.215811847	0
73	2402463	213.323361596	0
73	2403762	213.421972031	0
73	2404557	213.482415981	0
73	2406903	213.675954263	0
73	2407903	213.759623561	0
73	2409658	213.895532466	0
73	2410180	213.929669377	0
73	2412135	214.068706211	0
73	2413058	214.13031814	0
73	2417160	214.424663184	1
73	2418014	214.481969817	0
73	2418394	214.50652917	0
73	2420273	214.650368399	0
73	2421396	214.731992513	0
73	2421435	214.733616881	0
73	2421646	214.75060923	0
73	2422655	214.831123906	0
73	2422685	214.833488944	0
73	2426107	215.07682583	0
73	2429598	215.296104786	0
73	2432688	215.457593334	0
73	2434738	215.563121747	0
73	2435977	215.622432654	0
73	2436630	215.652353717	0
73	2440893	215.875984972	0
73	2442597	215.974873958	0
73	2447497	216.315161667	0
73	2448280	216.376479165	0
73	2450228	216.548790747	0
73	2452757	216.745173025	0
73	2453734	216.803224277	0
73	2455547	216.903334621	0
73	2457832	217.021949612	0
73	2458638	217.066185385	0
73	2460294	217.149641354	0
73	2460993	217.187125019	0
73	2461900	217.233909362	0
73	2464047	217.356121068	0
73	2466554	217.511407734	0
73	2466584	217.512716621	0
73	2466802	217.526293712	0
73	2470767	217.814277296	0
73	2470906	217.826376518	0
73	2470972	217.832219559	0
73	2472245	217.929671765	0
73	2472423	217.943476668	0
73	2475686	218.136109798	0
73	2477801	218.26358181	0
73	2479846	218.399690285	0
73	2480523	218.448188917	0
73	2481833	218.54527737	0
73	2484182	218.770024577	0
73	2485623	218.924097907	0
73	2485754	218.937182518	0
73	2488056	219.14348964	0
73	2489216	219.268473631	0
73	2489729	219.31699563	0
73	2489987	219.341201146	0
73	2490724	219.414130708	0
73	2490962	219.433060768	0
73	2492616	219.581243693	0
73	2492742	219.591428295	0
73	2493044	219.62225423	0
73	2495511	219.866768875	0
73	2496754	220.000908326	0
73	2497687	220.120201457	0
73	2497953	220.157654114	0
73	2498023	220.169406337	0
73	2498411	220.236726742	0
73	2498918	220.341784167	0
73	2499277	220.425748146	0
73	2499423	220.45537631	0
73	2499822	220.527945845	0
73	2501442	220.748908336	0
73	2502419	220.851239298	0
73	2502675	220.879949903	0
73	2503754	220.978663839	0
73	2506475	221.229683226	0
73	2506739	221.258306234	0
73	2507086	221.290507671	0
73	2507188	221.304665896	0
73	2507652	221.355337397	0
73	2508182	221.410035406	0
73	2511706	221.727029295	0
73	2513059	221.834310475	0
73	2513167	221.843025061	0
73	2514827	221.968181936	0
73	2517394	222.1501324	0
73	2518736	222.234968736	0
73	2520052	222.311216958	0
73	2523781	222.523092277	0
73	2529702	222.918569536	0
73	2530746	223.007653988	0
73	2531172	223.05315177	0
73	2531551	223.090168848	0
73	2532154	223.148200708	0
73	2532232	223.155252072	0
73	2532786	223.211585849	0
73	2532985	223.230502662	0
73	2533893	223.322195296	0
73	2536401	223.571034502	0
73	2536494	223.578256172	0
73	2538953	223.802592508	0
73	2539864	223.875810225	0
73	2540601	223.929699098	0
73	2541403	223.990064347	0
73	2542780	224.078316374	0
73	2542967	224.090262012	0
73	2553923	224.643863816	0
73	2554849	224.684805005	0
73	2555359	224.707006054	0
73	2559120	224.87627651	0
73	2559350	224.887974074	0
73	2560181	224.932265306	0
73	2567851	225.419896062	0
73	2568297	225.450917236	0
73	2569679	225.548109543	0
73	2569945	225.562701652	0
73	2570602	225.599900119	0
73	2571141	225.629211039	0
73	2571329	225.642321376	0
73	2571659	225.661301454	0
73	2574204	225.802563012	0
73	2575337	225.870172609	0
73	2575579	225.886021	0
73	2576460	225.933593355	0
73	2578256	226.065334074	0
73	2579801	226.217623104	0
73	2582443	226.493820273	0
73	2583289	226.567168978	0
73	2583564	226.58686143	0
73	2583613	226.591411857	0
73	2587759	226.8094904	0
73	2591028	226.967065264	0
73	2591777	226.999118668	0
73	2592140	227.015247711	0
73	2592368	227.022017616	0
73	2594082	227.090265579	0
73	2594707	227.113520518	0
73	2600269	227.335649646	0
73	2603092	227.457254888	0
73	2604557	227.531444093	0
73	2606476	227.647672177	0
73	2607125	227.6918237	0
73	2607279	227.700822394	0
73	2612000	228.088315864	0
73	2612096	228.095453359	0
73	2616977	228.404811688	0
73	2617962	228.4755953	0
73	2618499	228.517298662	0
73	2620322	228.655664051	0
73	2621678	228.770517638	1
73	2621939	228.798142786	0
73	2622786	228.884113321	0
73	2622913	228.897626009	0
73	2623297	228.931871686	0
73	2625970	229.186565877	0
73	2628655	229.41659142	0
73	2629947	229.540929043	0
73	2630414	229.578921853	0
73	2632748	229.775497832	0
73	2632858	229.783179263	0
73	2633975	229.868223022	0
73	2634178	229.883849363	0
73	2635524	229.96193584	0
73	2635545	229.962569363	0
73	2641152	230.24078386	0
73	2643404	230.345574795	0
73	2646758	230.483697312	0
73	2649530	230.593615138	0
73	2651561	230.683818898	0
73	2654225	230.81051149	0
73	2654496	230.822627528	0
73	2656047	230.908672415	0
73	2656478	230.935074714	0
73	2659639	231.15662904	0
73	2661313	231.272426867	0
73	2665633	231.586556305	0
73	2666824	231.664440582	0
73	2667112	231.683837387	0
73	2669431	231.808356583	0
73	2670476	231.865136254	0
73	2670629	231.873671653	0
73	2671314	231.909769071	0
73	2672976	231.99290374	0
73	2676222	232.195943986	0
73	2676526	232.214804635	0
73	2676631	232.221189003	0
73	2678981	232.362849407	0
73	2681936	232.554540362	0
73	2684286	232.734137942	0
73	2684576	232.754249048	0
73	2685877	232.862599159	0
73	2690424	233.188477444	0
73	2690571	233.199118163	0
73	2691453	233.268294212	0
73	2691679	233.287472772	0
73	2691820	233.303042347	0
73	2691991	233.312330214	0
73	2693769	233.494586731	0
73	2696248	233.829728983	0
73	2697256	233.941366251	0
73	2697325	233.948100099	0
73	2698387	234.051247199	0
73	2698392	234.051840318	0
73	2701385	234.274620597	0
73	2703440	234.412233351	0
73	2708569	234.759216088	0
73	2708892	234.782894956	0
73	2709681	234.836014986	0
73	2712461	235.037438915	0
73	2713084	235.079678057	0
73	2717347	235.346955409	0
73	2717693	235.366830951	0
73	2720893	235.541425368	0
73	2721912	235.596849811	0
73	2723451	235.666106809	0
73	2725173	235.743988652	0
73	2727676	235.865773631	0
73	2729206	235.944778446	0
73	2729334	235.952195244	0
73	2730638	236.021613126	0
73	2731480	236.074271909	0
73	2734697	236.297242238	0
73	2738085	236.523938576	0
73	2739574	236.605814591	0
73	2743563	236.82589938	0
73	2744961	236.910923713	0
73	2747500	237.077919334	0
73	2748470	237.139880481	0
73	2748615	237.150036598	0
73	2749183	237.188015591	0
73	2750395	237.265848786	0
73	2755000	237.509596967	0
73	2756604	237.593076029	0
73	2758120	237.679225617	0
73	2759216	237.742427295	0
73	2759381	237.752350888	0
73	2761451	237.873329765	0
73	2761678	237.889688104	0
73	2761965	237.909932044	0
73	2763635	238.023562924	0
73	2764293	238.072653616	0
73	2766966	238.247955529	0
73	2768804	238.350592119	0
73	2772372	238.5467367	0
73	2773301	238.597608745	0
73	2774637	238.670083914	0
73	2775960	238.743485533	0
73	2781748	239.107564369	0
73	2781980	239.119597048	0
73	2782089	239.131193001	0
73	2782360	239.145943973	0
73	2784480	239.340074568	0
73	2784718	239.363683872	0
73	2785231	239.411032622	0
73	2788014	239.646097753	0
73	2788418	239.681710425	0
73	2789824	239.790597534	0
73	2792277	239.964256881	0
73	2793281	240.031677326	1
73	2793989	240.076332681	0
73	2797980	240.310029361	0
73	2801275	240.495426482	0
73	2801713	240.524140768	0
73	2802831	240.588951885	0
73	2808477	240.957111665	0
73	2810016	241.048045092	0
73	2810499	241.080600925	0
73	2812123	241.166257847	0
73	2815621	241.370772625	0
73	2815658	241.373209525	0
73	2815693	241.37486047	0
73	2820194	241.680094123	2
73	2821641	241.797440711	0
73	2823708	241.977332715	0
73	2823824	241.986809181	0
73	2824366	242.032367416	0
73	2827608	242.289350352	0
73	2828022	242.328045528	0
73	2831278	242.575452914	0
73	2831614	242.599843893	0
73	2831803	242.613020916	0
73	2833013	242.699061149	0
73	2833847	242.754671033	0
73	2834226	242.78329554	0
73	2837990	243.034566358	0
73	2838466	243.062239085	0
73	2839754	243.1405513	0
73	2841502	243.24524428	0
73	2844144	243.40192104	0
73	2844589	243.43018757	0
73	2847592	243.633385392	0
73	2847728	243.645306728	0
73	2849185	243.74534625	0
73	2850161	243.806792511	0
73	2850723	243.841651992	0
73	2851469	243.883489862	0
73	2853575	243.976924282	0
73	2856411	244.10884545	0
73	2858466	244.204774251	0
73	2859294	244.247059152	0
73	2865001	244.600909209	0
73	2865217	244.615407057	0
73	2869567	244.963402148	1
73	2869982	244.994350777	0
73	2870505	245.033222656	0
73	2871924	245.147120494	0
73	2872215	245.169679451	0
73	2875421	245.463559759	0
73	2875610	245.479853196	0
73	2876084	245.528309263	0
73	2876478	245.569699517	0
73	2878466	245.754098606	0
73	2879588	245.842069042	0
73	2883148	246.112027535	0
73	2883242	246.119043843	0
73	2884718	246.222699925	0
73	2885462	246.272562995	0
73	2888280	246.44300217	0
73	2893392	246.728793075	0
73	2894145	246.769852625	0
73	2894902	246.816284386	0
73	2895394	246.846621272	0
73	2896789	246.934495086	0
73	2899195	247.131872838	0
73	2900370	247.273223177	0
73	2901110	247.364661269	0
73	2901713	247.431460691	0
73	2902293	247.478465141	0
73	2903040	247.532534364	0
73	2903888	247.584983912	0
73	2905409	247.672370969	0
73	2906022	247.707114182	0
73	2906669	247.745237061	0
73	2907096	247.767801055	0
73	2908420	247.843905479	0
73	2909249	247.894973935	0
73	2912950	248.11824342	0
73	2914112	248.191624043	0
73	2915451	248.271381682	0
73	2915452	248.272225346	0
73	2917460	248.39139001	0
73	2917529	248.394022353	0
73	2920070	248.53632738	0
73	2928350	249.010871226	0
73	2931096	249.193073606	0
73	2931411	249.215227989	0
73	2932600	249.306385707	0
73	2935430	249.514818108	0
73	2935629	249.530936325	0
73	2935723	249.535540917	0
73	2935831	249.543046738	0
73	2936445	249.587830438	0
73	2938797	249.770915927	0
73	2939481	249.822627265	0
73	2941547	249.99906605	0
73	2942063	250.045874457	0
73	2943136	250.150665364	0
73	2947187	250.518478324	0
73	2947510	250.542315744	0
73	2948498	250.621600458	0
73	2948682	250.638471492	0
73	2949313	250.689487538	0
73	2950108	250.755123146	0
73	2967511	251.784426813	0
73	2983395	252.835202735	0
73	2984183	252.910561543	0
73	3058378	258.75882581	0
73	3067701	259.354960227	0
73	3114197	262.595294216	2
73	3130760	263.40667265	0
73	3150769	264.652565793	0
73	3260529	272.229123254	0
73	3322676	276.345535096	0
73	3367103	279.040263814	0
73	3371548	279.301950393	0
73	3392590	280.564102895	0
73	3402544	281.222673254	0
73	3484742	287.233922095	1
73	3622553	295.754981282	5
73	3623285	295.808625331	0
73	3639441	296.656357854	0
73	3685403	300.006955504	0
73	3688406	300.280645634	0
73	3697934	300.997626832	0
73	3708324	301.862478688	0
73	3709415	301.944395386	0
73	3713586	302.243629675	0
73	3715918	302.392694123	0
73	3717769	302.506777594	0
73	3718057	302.526045778	0
73	3720269	302.647414186	0
73	3720270	302.647668131	0
73	3720330	302.650636503	0
73	3720460	302.657158704	0
73	3721672	302.726852583	0
73	3721957	302.739212573	0
73	3724718	302.873734916	0
73	3724983	302.885732642	0
73	3727662	303.010512164	0
73	3729136	303.083142495	0
73	3730341	303.148706736	0
73	3731444	303.212604717	0
73	3736070	303.486524955	0
73	3737172	303.549986694	0
73	3738049	303.597778566	0
73	3738473	303.622976662	0
73	3739331	303.669946266	0
73	3742431	303.842802745	0
73	3742978	303.877063476	0
73	3751145	304.391848365	0
73	3752322	304.478117117	0
73	3752369	304.482511021	0
73	3752420	304.488346325	0
73	3752988	304.533659334	0
73	3754373	304.655049685	0
73	3755122	304.724321763	0
73	3756176	304.833097413	0
73	3756338	304.852255975	0
73	3756924	304.911768272	0
73	3758548	305.061504493	0
73	3759314	305.12561251	0
73	3759912	305.16791634	0
73	3760784	305.234533666	0
73	3761128	305.265343888	0
73	3761415	305.287629995	0
73	3762193	305.343100515	0
73	3766771	305.642770568	0
73	3768432	305.734690902	0
73	3768851	305.755371106	0
73	3771365	305.896245175	0
73	3774288	306.081171474	0
73	3774821	306.121738312	0
73	3777019	306.273734284	0
73	3780623	306.564045017	0
73	3780739	306.571439899	0
73	3780947	306.587891046	0
73	3782966	306.722732842	0
73	3785947	306.906698895	0
73	3787879	307.021384144	0
73	3793614	307.352249788	0
73	3795378	307.461018659	0
73	3795884	307.494340682	0
73	3795885	307.49435238	0
73	3796487	307.539014426	0
73	3797110	307.587310706	0
73	3797367	307.609362307	0
73	3798258	307.696080902	0
73	3798979	307.765571707	0
73	3800267	307.901330767	0
73	3801424	308.023487412	0
73	3804325	308.290042168	0
73	3806136	308.428767304	0
73	3806836	308.484936742	0
73	3808042	308.578046081	0
73	3808117	308.585901013	0
73	3808362	308.605009103	0
73	3808408	308.610007527	0
73	3809096	308.661740468	0
73	3809242	308.674566933	0
73	3812065	308.865221432	0
73	3814991	309.031006791	0
73	3818041	309.200412361	0
73	3821072	309.360467113	0
73	3821647	309.393898459	0
73	3823568	309.503919258	0
73	3824049	309.540509264	0
73	3825353	309.629258188	0
73	3827450	309.817389176	0
73	3828427	309.93839344	1
73	3829136	310.022699071	0
73	3830143	310.139818532	0
73	3832388	310.385856731	0
73	3832680	310.415130302	0
73	3832869	310.43739469	0
73	3832978	310.447332368	0
73	3835002	310.616157764	0
73	3837672	310.788061561	0
73	3837936	310.807419243	0
73	3838899	310.858790283	0
73	3842418	311.058155543	0
73	3843297	311.116566674	0
73	3843765	311.146936119	0
73	3845319	311.244094537	0
73	3846509	311.324048726	0
73	3846536	311.325287648	0
73	3847084	311.365045883	0
73	3849809	311.550815483	0
73	3851373	311.650602012	0
73	3853192	311.776704125	0
73	3853678	311.809139848	0
73	3854467	311.870479348	0
73	3856249	312.035982003	0
73	3857450	312.144369073	0
73	3858322	312.206747224	0
73	3860219	312.371251202	0
73	3861795	312.486413062	0
73	3862472	312.535050837	0
73	3866721	312.775444464	0
73	3870392	312.997357676	0
73	3871902	313.106939569	0
73	3872139	313.12777697	0
73	3872385	313.144031961	0
73	3872470	313.148068597	0
73	3872791	313.173149107	0
73	3873276	313.215811847	0
73	3874761	313.323361596	0
73	3876195	313.421972031	0
73	3877079	313.482415981	0
73	3879654	313.675954263	0
73	3880896	313.759623561	0
73	3882631	313.895532466	0
73	3883046	313.929669377	0
73	3884891	314.068706211	0
73	3885752	314.13031814	0
73	3889704	314.424663184	0
73	3890358	314.481969817	0
73	3890634	314.50652917	0
73	3892876	314.731992513	0
73	3892894	314.733616881	0
73	3894099	314.831123906	0
73	3894133	314.833488944	0
73	3897053	315.07682583	0
73	3899539	315.296104786	0
73	3901673	315.457593334	0
73	3903451	315.563121747	0
73	3904444	315.622432654	0
73	3905026	315.652353717	0
73	3909567	315.875984972	0
73	3911563	315.974873958	0
73	3912457	316.022970396	1
73	3916900	316.315161667	0
73	3917742	316.376479165	0
73	3920131	316.548790747	0
73	3922695	316.745173025	0
73	3923315	316.803224277	0
73	3924305	316.903334621	0
73	3925362	317.021949612	0
73	3925838	317.066185385	0
73	3926694	317.149641354	0
73	3927033	317.187125019	0
73	3927519	317.233909362	0
73	3928709	317.356121068	0
73	3930485	317.511407734	0
73	3930501	317.512716621	0
73	3930676	317.526293712	0
73	3935291	317.814277296	0
73	3935509	317.826376518	0
73	3935651	317.832219559	0
73	3937365	317.929671765	0
73	3937574	317.943476668	0
73	3940836	318.136109798	0
73	3942740	318.26358181	0
73	3944819	318.399690285	0
73	3945470	318.448188917	0
73	3946942	318.54527737	0
73	3950518	318.770024577	0
73	3953088	318.937182518	0
73	3956428	319.14348964	0
73	3958380	319.268473631	0
73	3959084	319.31699563	0
73	3959359	319.341201146	0
73	3960326	319.414130708	0
73	3960578	319.433060768	0
73	3962295	319.581243693	0
73	3962441	319.591428295	0
73	3962792	319.62225423	0
73	3965625	319.866768875	0
73	3967255	320.000908326	0
73	3968630	320.120201457	0
73	3969108	320.157654114	0
73	3969247	320.169406337	0
73	3970074	320.236726742	0
73	3971646	320.341784167	0
73	3973011	320.425748146	0
73	3973508	320.45537631	0
73	3974738	320.527945845	0
73	3978830	320.748908336	0
73	3980966	320.851239298	0
73	3981621	320.879949903	0
73	3983562	320.978663839	0
73	3988094	321.229683226	0
73	3988507	321.258306234	0
73	3988941	321.290507671	2
73	3989212	321.304665896	0
73	3990100	321.355337397	0
73	3991016	321.410035406	0
73	3996739	321.727029295	0
73	3998879	321.834310475	0
73	3999028	321.843025061	0
73	4001494	321.968181936	0
73	4004470	322.1501324	0
73	4005689	322.234968736	0
73	4006779	322.311216958	0
73	4009287	322.523092277	0
73	4013934	322.918569536	0
73	4015060	323.007653988	0
73	4015705	323.05315177	0
73	4016183	323.090168848	0
73	4016942	323.148200708	0
73	4017061	323.155252072	0
73	4017842	323.211585849	0
73	4018124	323.230502662	0
73	4019797	323.322195296	0
73	4024229	323.571034502	0
73	4024351	323.578256172	0
73	4028351	323.802592508	0
73	4029605	323.875810225	0
73	4030593	323.929699098	0
73	4031636	323.990064347	0
73	4032980	324.078316374	0
73	4033150	324.090262012	0
73	4039154	324.643863816	0
73	4039511	324.684805005	0
73	4039798	324.707006054	0
73	4041839	324.87627651	0
73	4042007	324.887974074	0
73	4042567	324.932265306	0
73	4048938	325.419896062	0
73	4049376	325.450917236	0
73	4050976	325.548109543	0
73	4051992	325.599900119	0
73	4052484	325.629211039	0
73	4052755	325.642321376	0
73	4053062	325.661301454	0
73	4055605	325.802563012	0
73	4056913	325.870172609	0
73	4057245	325.886021	0
73	4058037	325.933593355	0
73	4060837	326.065334074	0
73	4064417	326.217623104	0
73	4070505	326.493820273	0
73	4072039	326.567168978	0
73	4072460	326.58686143	0
73	4072564	326.591411857	0
73	4077218	326.8094904	0
73	4080430	326.967065264	0
73	4081050	326.999118668	0
73	4081339	327.015247711	0
73	4081483	327.022017616	0
73	4082816	327.090265579	0
73	4083259	327.113520518	0
73	4087064	327.335649646	0
73	4088697	327.457254888	0
73	4089770	327.531444093	0
73	4091695	327.647672177	0
73	4092361	327.6918237	0
73	4092507	327.700822394	0
73	4098419	328.088315864	0
73	4098521	328.095453359	0
73	4103178	328.404811688	0
73	4104227	328.4755953	0
73	4104873	328.517298662	0
73	4106848	328.655664051	0
73	4108338	328.770517638	0
73	4108652	328.798142786	0
73	4109872	328.884113321	0
73	4110063	328.897626009	0
73	4110499	328.931871686	0
73	4114772	329.186565877	0
73	4118919	329.41659142	0
73	4120735	329.540929043	0
73	4121229	329.578921853	0
73	4123648	329.775497832	0
73	4123710	329.783179263	0
73	4124793	329.868223022	0
73	4124945	329.883849363	0
73	4125937	329.96193584	0
73	4125941	329.962569363	0
73	4129745	330.24078386	0
73	4131096	330.345574795	0
73	4133127	330.483697312	0
73	4134949	330.593615138	0
73	4138790	330.81051149	0
73	4139039	330.822627528	0
73	4140788	330.908672415	0
73	4141396	330.935074714	0
73	4145928	331.15662904	0
73	4148058	331.272426867	0
73	4152796	331.586556305	0
73	4154015	331.664440582	0
73	4154306	331.683837387	0
73	4156189	331.808356583	0
73	4156953	331.865136254	0
73	4157160	331.873671653	0
73	4157621	331.909769071	0
73	4158871	331.99290374	0
73	4161797	332.195943986	0
73	4162072	332.214804635	0
73	4162174	332.221189003	0
73	4165497	332.469833566	2
73	4166649	332.554540362	0
73	4168755	332.734137942	0
73	4168940	332.754249048	0
73	4170008	332.862599159	0
73	4173488	333.188477444	0
73	4173614	333.199118163	0
73	4174372	333.268294212	0
73	4174586	333.287472772	0
73	4174748	333.303042347	0
73	4174836	333.312330214	0
73	4176776	333.494586731	0
73	4181307	333.829728983	0
73	4182909	333.941366251	0
73	4183012	333.948100099	0
73	4184319	334.051247199	0
73	4184332	334.051840318	0
73	4187838	334.274620597	0
73	4190449	334.412233351	0
73	4195775	334.759216088	0
73	4196144	334.782894956	0
73	4196848	334.836014986	0
73	4199247	335.037438915	0
73	4199763	335.079678057	0
73	4203928	335.346955409	0
73	4204260	335.366830951	0
73	4207208	335.541425368	0
73	4208162	335.596849811	0
73	4209376	335.666106809	0
73	4210787	335.743988652	0
73	4212517	335.865773631	0
73	4213781	335.944778446	0
73	4213917	335.952195244	0
73	4215001	336.021613126	0
73	4215893	336.074271909	0
73	4219203	336.297242238	0
73	4222066	336.523938576	0
73	4223055	336.605814591	0
73	4226058	336.82589938	0
73	4227136	336.910923713	0
73	4229417	337.077919334	0
73	4230241	337.139880481	0
73	4230398	337.150036598	0
73	4230953	337.188015591	0
73	4231991	337.265848786	0
73	4235177	337.509596967	0
73	4236427	337.593076029	0
73	4237939	337.679225617	0
73	4239136	337.742427295	0
73	4239327	337.752350888	0
73	4241833	337.873329765	1
73	4242155	337.889688104	0
73	4242573	337.909932044	0
73	4244721	338.023562924	0
73	4245757	338.072653616	0
73	4248820	338.247955529	0
73	4250296	338.350592119	0
73	4253075	338.5467367	0
73	4253767	338.597608745	0
73	4254621	338.670083914	0
73	4255543	338.743485533	0
73	4259870	339.107564369	0
73	4259990	339.119597048	0
73	4260159	339.131193001	0
73	4260325	339.145943973	0
73	4262791	339.340074568	0
73	4263110	339.363683872	0
73	4263698	339.411032622	0
73	4266303	339.646097753	0
73	4266679	339.681710425	0
73	4267858	339.790597534	0
73	4270058	339.964256881	0
73	4270907	340.031677326	0
73	4271512	340.076332681	0
73	4274976	340.310029361	0
73	4277968	340.495426482	0
73	4278447	340.524140768	0
73	4279581	340.588951885	0
73	4284828	340.957111665	0
73	4285800	341.048045092	0
73	4286062	341.080600925	0
73	4286761	341.166257847	0
73	4288395	341.370772625	0
73	4288408	341.373209525	0
73	4288437	341.37486047	0
73	4292596	341.680094123	0
73	4294457	341.797440711	0
73	4297219	341.977332715	0
73	4297376	341.986809181	0
73	4298011	342.032367416	0
73	4301727	342.289350352	0
73	4302299	342.328045528	0
73	4305869	342.575452914	0
73	4306283	342.599843893	0
73	4306518	342.613020916	0
73	4307833	342.699061149	0
73	4308627	342.754671033	0
73	4309044	342.78329554	1
73	4311997	343.034566358	0
73	4312366	343.062239085	0
73	4313235	343.1405513	0
73	4314509	343.24524428	0
73	4316454	343.385332696	1
73	4316769	343.40192104	0
73	4317238	343.43018757	2
73	4320884	343.633385392	0
73	4321070	343.645306728	0
73	4322909	343.74534625	0
73	4324056	343.806792511	0
73	4324545	343.841651992	0
73	4325162	343.883489862	0
73	4326605	343.976924282	0
73	4328331	344.10884545	0
73	4329344	344.204774251	0
73	4329754	344.247059152	0
73	4333306	344.600909209	0
73	4333490	344.615407057	0
73	4337709	344.963402148	0
73	4338037	344.994350777	0
73	4338372	345.033222656	0
73	4339498	345.147120494	0
73	4339716	345.169679451	0
73	4339833	345.184795188	0
73	4342843	345.463559759	0
73	4343042	345.479853196	0
73	4343721	345.528309263	0
73	4344426	345.569699517	0
73	4347427	345.754098606	0
73	4353794	346.112027535	0
73	4355474	346.222699925	0
73	4356184	346.272562995	0
73	4358467	346.44300217	0
73	4361982	346.728793075	0
73	4362485	346.769852625	0
73	4362944	346.816284386	0
73	4363273	346.846621272	0
73	4364174	346.934495086	0
73	4365954	347.131872838	0
73	4367837	347.273223177	0
73	4368955	347.364661269	0
73	4369835	347.431460691	0
73	4370457	347.478465141	0
73	4371336	347.532534364	0
73	4372290	347.584983912	0