version 2
run KademliaDHT-3-20211202-22:04:45-9356
attr Lifetime 400s
attr configname KademliaDHT
attr datetime 20211202-22:04:45
attr experiment KademliaDHT
attr inifile configs.ini
attr iterationvars $Lifetime=400s
attr iterationvars2 "$Lifetime=400s, $repetition=0"
attr measurement $Lifetime=400s
attr network oversim.underlay.simpleunderlay.SimpleUnderlayNetwork
attr processid 9356
attr repetition 0
attr replication #0
attr resultdir results
attr runnumber 3
attr seedset 3

vector 22  SimpleUnderlayNetwork.globalObserver.globalStatistics  "GlobalNodeList: Number of nodes"  ETV
vector 23  SimpleUnderlayNetwork.globalObserver.globalStatistics  "GlobalDhtTestMap: Number of stored DHT entries"  ETV
vector 24  SimpleUnderlayNetwork.globalObserver.globalStatistics  "LifetimeChurn: Time between deletes"  ETV
vector 25  SimpleUnderlayNetwork.globalObserver.globalStatistics  "LifetimeChurn: Session Time"  ETV
vector 26  SimpleUnderlayNetwork.globalObserver.globalStatistics  "LifetimeChurn: Time between creates"  ETV
vector 27  SimpleUnderlayNetwork.globalObserver.globalStatistics  "Kademlia: Buckets Refreshed Per Task"  ETV
22	1268303	150	496
22	1863568	200	497
22	2458472	250	504
22	3076518	300	508
22	3675180	350	504
22	4296915	400	499
22	4966968	450	520
22	5614813	500	512
22	6230716	550	499
22	6839350	600	507
22	7453932	650	508
22	8119463	700	515
22	8708233	750	487
22	9283948	800	481
22	9860258	850	483
22	10396479	900	483
22	11002656	950	489
22	11574503	1000	498
22	12272212	1050	492
22	12931286	1100	488
23	1268304	150	696
23	1378712	160	769
23	1496886	170	840
23	1616451	180	900
23	1733026	190	962
23	1863569	200	1041
23	1979000	210	1136
23	2097130	220	1204
23	2216805	230	1277
23	2338544	240	1341
23	2458473	250	1405
23	2577957	260	1492
23	2696384	270	1582
23	2821338	280	1654
23	2948200	290	1722
23	3076519	300	1790
23	3190733	310	1862
23	3307894	320	1953
23	3431285	330	2045
23	3541725	340	2111
23	3675181	350	2182
23	3808313	360	2241
23	3930607	370	2239
23	4057133	380	2240
23	4191532	390	2233
23	4296916	400	2213
23	4417849	410	2208
23	4548166	420	2246
23	4676137	430	2254
23	4815582	440	2245
23	4966969	450	2249
23	5109552	460	2253
23	5220635	470	2238
23	5343279	480	2243
23	5473841	490	2260
23	5614814	500	2269
23	5751166	510	2265
23	5876436	520	2269
23	5982994	530	2255
23	6114963	540	2259
23	6230717	550	2273
23	6351601	560	2274
23	6487540	570	2263
23	6607548	580	2271
23	6727948	590	2264
23	6839351	600	2255
23	6966194	610	2256
23	7094044	620	2249
23	7222790	630	2248
23	7345632	640	2248
23	7453933	650	2247
23	7584826	660	2248
23	7713373	670	2243
23	7854499	680	2248
23	7990643	690	2255
23	8119464	700	2245
23	8229146	710	2264
23	8338936	720	2238
23	8461329	730	2249
23	8574637	740	2240
23	8708234	750	2223
23	8826495	760	2230
23	8934348	770	2245
23	9055825	780	2258
23	9176209	790	2241
23	9283949	800	2226
23	9396717	810	2219
23	9502163	820	2230
23	9617945	830	2229
23	9731049	840	2230
23	9860259	850	2233
23	9959475	860	2201
23	10072980	870	2206
23	10176597	880	2206
23	10281997	890	2211
23	10396480	900	2219
23	10543631	910	2228
23	10648647	920	2207
23	10764220	930	2192
23	10885616	940	2201
23	11002657	950	2194
23	11127277	960	2188
23	11237413	970	2197
23	11348696	980	2165
23	11454659	990	2172
23	11574504	1000	2201
23	11720268	1010	2186
23	11841861	1020	2190
23	11979823	1030	2185
23	12135339	1040	2188
23	12272213	1050	2191
23	12391261	1060	2204
23	12519827	1070	2204
23	12646164	1080	2201
23	12791870	1090	2210
23	12931287	1100	2210
23	13079145	1110	2202
23	13195500	1120	2197
23	13305795	1130	2196
23	13389733	1140	2198
24	1269689	150.132508583	0.296040247
24	1283726	151.135527945	1.003019362
24	1284608	151.198313022	0.062785077
24	1296493	152.205089364	1.006776342
24	1307153	153.14989617	0.944806806
24	1315071	153.66396629	0.51407012
24	1321752	154.336235845	0.672269555
24	1331376	155.354652438	1.018416593
24	1332802	155.48266386	0.128011422
24	1339607	156.045842926	0.563179066
24	1339863	156.076997872	0.031154946
24	1347171	157.06121509	0.984217218
24	1350744	157.399383157	0.338168067
24	1352776	157.63142116	0.232038003
24	1353812	157.742754335	0.111333175
24	1354219	157.791503023	0.048748688
24	1370458	159.462139074	1.670636051
24	1377043	159.892648883	0.430509809
24	1382740	160.343627101	0.450978218
24	1395691	161.458955322	1.115328221
24	1404560	162.388943294	0.929987972
24	1414796	163.276631793	0.887688499
24	1417415	163.617035431	0.340403638
24	1417821	163.658178853	0.041143422
24	1432203	164.858889294	1.200710441
24	1459581	166.969502045	2.110612751
24	1468522	167.586304331	0.616802286
24	1469233	167.628069955	0.041765624
24	1488580	169.237932684	1.609862729
24	1493596	169.661990446	0.424057762
24	1500122	170.358485033	0.696494587
24	1518873	171.81219691	1.453711877
24	1520126	171.911684154	0.099487244
24	1526334	172.375218096	0.463533942
24	1532185	172.866497027	0.491278931
24	1543712	173.907426406	1.040929379
24	1552419	174.701904224	0.794477818
24	1553295	174.755765446	0.053861222
24	1555742	174.928996691	0.173231245
24	1594732	178.097154743	3.168158052
24	1596942	178.280718953	0.18356421
24	1598945	178.433482846	0.152763893
24	1607388	179.139096642	0.705613796
24	1609470	179.334921772	0.19582513
24	1609945	179.376437839	0.041516067
24	1619849	180.379924819	1.00348698
24	1630041	181.286243275	0.906318456
24	1651476	183.121660821	1.835417546
24	1679782	185.263177052	2.141516231
24	1683589	185.621098851	0.357921799
24	1689303	186.136017376	0.514918525
24	1689946	186.189885479	0.053868103
24	1695529	186.745938898	0.556053419
24	1708461	187.686556969	0.940618071
24	1726446	189.331955305	1.645398336
24	1727375	189.431629319	0.099674014
24	1731654	189.886825995	0.455196676
24	1740412	190.525461102	0.638635107
24	1759800	192.095798606	1.570337504
24	1774742	193.216320606	1.120522
24	1784937	194.002701744	0.786381138
24	1787074	194.155046007	0.152344263
24	1813389	196.218872302	2.063826295
24	1820091	196.758479676	0.539607374
24	1829354	197.613102128	0.854622452
24	1837462	198.305078938	0.69197681
24	1846298	198.828142138	0.5230632
24	1863720	200.013323003	1.185180865
24	1864289	200.048178223	0.03485522
24	1868200	200.288771469	0.240593246
24	1880628	200.954765323	0.665993854
24	1894658	202.09488702	1.140121697
24	1926096	205.203590998	3.108703978
24	1937219	206.186437222	0.982846224
24	1959582	208.199937917	2.013500695
24	1960796	208.343929211	0.143991294
24	1975626	209.677662985	1.333733774
24	1980261	210.11896211	0.441299125
24	1984352	210.527245536	0.408283426
24	1995382	211.492936178	0.965690642
24	2009516	212.729482559	1.236546381
24	2009995	212.767885649	0.03840309
24	2029404	214.50480474	1.736919091
24	2030825	214.64838689	0.14358215
24	2033542	214.951764392	0.303377502
24	2057245	216.746909777	1.795145385
24	2061093	216.993490329	0.246580552
24	2077572	218.45454448	1.461054151
24	2087423	219.172272266	0.717727786
24	2090529	219.41309463	0.240822364
24	2101574	220.271240911	0.858146281
24	2101998	220.295575873	0.024334962
24	2113208	221.105466733	0.80989086
24	2117284	221.487343944	0.381877211
24	2126564	222.223138099	0.735794155
24	2130969	222.484998135	0.261860036
24	2132931	222.651271925	0.16627379
24	2166001	225.629184294	2.977912369
24	2172920	226.385229481	0.756045187
24	2176875	226.738163435	0.352933954
24	2239710	231.772686669	5.034523234
24	2240410	231.83874358	0.066056911
24	2262963	233.46771904	1.62897546
24	2267807	233.903251909	0.435532869
24	2270359	234.146300829	0.24304892
24	2283389	235.084897778	0.938596949
24	2288985	235.504715993	0.419818215
24	2306766	237.110795448	1.606079455
24	2311265	237.46986241	0.359066962
24	2313033	237.615492726	0.145630316
24	2325302	238.831228003	1.215735277
24	2337486	239.914105139	1.082877136
24	2359148	242.054171624	2.140066485
24	2363316	242.445600777	0.391429153
24	2400957	245.299469097	2.85386832
24	2404153	245.579802615	0.280333518
24	2405795	245.736205569	0.156402954
24	2430348	247.437694219	1.70148865
24	2433805	247.76930018	0.331605961
24	2437015	247.994872325	0.225572145
24	2445012	248.776933808	0.782061483
24	2447499	248.987713956	0.210780148
24	2490568	252.515482718	3.527768762
24	2497087	253.106380996	0.590898278
24	2501876	253.52701687	0.420635874
24	2505301	253.845836903	0.318820033
24	2510074	254.231349735	0.385512832
24	2515545	254.803556198	0.572206463
24	2518308	254.977727255	0.174171057
24	2518874	255.012983515	0.03525626
24	2520977	255.176656988	0.163673473
24	2530665	255.878515141	0.701858153
24	2533140	256.08212591	0.203610769
24	2534509	256.158240943	0.076115033
24	2538223	256.452778916	0.294537973
24	2558086	258.233575934	1.780797018
24	2560726	258.511925308	0.278349374
24	2562129	258.688511906	0.176586598
24	2578663	260.065504332	1.376992426
24	2585334	260.76600012	0.700495788
24	2587143	260.943260728	0.177260608
24	2602179	262.592522627	1.649261899
24	2610825	263.443700992	0.851178365
24	2612575	263.581091497	0.137390505
24	2616801	263.89377555	0.312684053
24	2617574	263.945625418	0.051849868
24	2652481	266.45253184	2.506906422
24	2655138	266.609731891	0.157200051
24	2667939	267.664502766	1.054770875
24	2677307	268.345259279	0.680756513
24	2686151	269.299325766	0.954066487
24	2703898	270.512908099	1.213582333
24	2710577	271.073446445	0.560538346
24	2724877	272.072041384	0.998594939
24	2733334	272.818856045	0.746814661
24	2738754	273.186305848	0.367449803
24	2758702	274.402292756	1.215986908
24	2758816	274.410020165	0.007727409
24	2758998	274.418408274	0.008388109
24	2763606	274.720326048	0.301917774
24	2768929	275.189420747	0.469094699
24	2769002	275.197038928	0.007618181
24	2770045	275.297588786	0.100549858
24	2787973	276.736059082	1.438470296
24	2794179	277.265238716	0.529179634
24	2794343	277.277550875	0.012312159
24	2811029	278.953797049	1.676246174
24	2817229	279.539821044	0.586023995
24	2825918	280.458335802	0.918514758
24	2828321	280.698643882	0.24030808
24	2847421	282.117862266	1.419218384
24	2852936	282.629175306	0.51131304
24	2861470	283.299984064	0.670808758
24	2865461	283.568001814	0.26801775
24	2872528	284.023826633	0.455824819
24	2874608	284.196594235	0.172767602
24	2907785	287.012078745	2.81548451
24	2917634	287.637737902	0.625659157
24	2932447	288.859366555	1.221628653
24	2964856	291.147825764	2.288459209
24	2989731	292.802548206	1.654722442
24	2997465	293.397343647	0.594795441
24	2999426	293.559304969	0.161961322
24	3035628	296.467613773	2.908308804
24	3052965	298.022985799	1.555372026
24	3078260	300.202544057	2.179558258
24	3082424	300.728879574	0.526335517
24	3088808	301.425262109	0.696382535
24	3090714	301.602957265	0.177695156
24	3099765	302.467656556	0.864699291
24	3109385	303.354895197	0.887238641
24	3113130	303.702847658	0.347952461
24	3126162	304.826863725	1.124016067
24	3131222	305.266352749	0.439489024
24	3160775	307.416192538	2.149839789
24	3185522	309.543647648	2.12745511
24	3189108	309.853198579	0.309550931
24	3191315	310.063963837	0.210765258
24	3194716	310.37060937	0.306645533
24	3195979	310.48170462	0.11109525
24	3203318	311.111497936	0.629793316
24	3207822	311.457181074	0.345683138
24	3210384	311.732144823	0.274963749
24	3214550	312.104781975	0.372637152
24	3217865	312.530288116	0.425506141
24	3227049	313.391988017	0.861699901
24	3230289	313.698521109	0.306533092
24	3241391	314.681632562	0.983111453
24	3243480	314.9174745	0.235841938
24	3255549	316.060016117	1.142541617
24	3258284	316.26321374	0.203197623
24	3264601	316.703412382	0.440198642
24	3284266	318.082577023	1.379164641
24	3303246	319.629587249	1.547010226
24	3305809	319.82362869	0.194041441
24	3317285	320.786110223	0.962481533
24	3327272	321.561134838	0.775024615
24	3344903	322.790183312	1.229048474
24	3356765	323.681495412	0.8913121
24	3372234	325.213846726	1.532351314
24	3374506	325.429674663	0.215827937
24	3376883	325.644416183	0.21474152
24	3394995	326.947367827	1.302951644
24	3397676	327.128728998	0.181361171
24	3403078	327.551212084	0.422483086
24	3412625	328.421856694	0.87064461
24	3414526	328.605245757	0.183389063
24	3417898	328.855136872	0.249891115
24	3437114	330.415078172	1.5599413
24	3442204	330.703790803	0.288712631
24	3469720	333.259742532	2.555951729
24	3470286	333.344389612	0.08464708
24	3470488	333.364302904	0.019913292
24	3470548	333.368958162	0.004655258
24	3474667	333.682067371	0.313109209
24	3487612	334.792807841	1.11074047
24	3495777	335.422890243	0.630082402
24	3502144	335.960319362	0.537429119
24	3524450	338.026524691	2.066205329
24	3527103	338.264465806	0.237941115
24	3528928	338.454824925	0.190359119
24	3536213	339.238522504	0.783697579
24	3541949	340.026788891	0.788266387
24	3543013	340.127774615	0.100985724
24	3548330	340.505374277	0.377599662
24	3570096	342.228589278	1.723215001
24	3575004	342.695056382	0.466467104
24	3578720	342.941509463	0.246453081
24	3591653	344.312978012	1.371468549
24	3593243	344.415310874	0.102332862
24	3601727	344.997666946	0.582356072
24	3603867	345.120684726	0.12301778
24	3612272	345.756215917	0.635531191
24	3620785	346.36300691	0.606790993
24	3630798	346.971271452	0.608264542
24	3653014	348.71079646	1.739525008
24	3660376	349.131001586	0.420205126
24	3660705	349.15021266	0.019211074
24	3670014	349.704014088	0.553801428
24	3671742	349.81121081	0.107196722
24	3698311	351.719511566	1.908300756
24	3701335	351.920540193	0.201028627
24	3705030	352.112247934	0.191707741
24	3719358	352.990415332	0.878167398
24	3719482	352.998598347	0.008183015
24	3742962	354.675092092	1.676493745
24	3762712	356.222928033	1.547835941
24	3769138	356.837260833	0.6143328
24	3775737	357.418106606	0.580845773
24	3782149	357.932577102	0.514470496
24	3785275	358.274955395	0.342378293
24	3786237	358.36887863	0.093923235
24	3798687	359.189351566	0.820472936
24	3801215	359.370227816	0.18087625
24	3809733	360.099663151	0.729435335
24	3822078	360.965912668	0.866249517
24	3839978	362.345882216	1.379969548
24	3849789	363.226715556	0.88083334
24	3857526	363.768515827	0.541800271
24	3860671	364.044419022	0.275903195
24	3860897	364.076430932	0.03201191
24	3878999	365.725523097	1.649092165
24	3892431	367.073790867	1.34826777
24	3901848	367.892060323	0.818269456
24	3911640	368.601860254	0.709799931
24	3925962	369.603414637	1.001554383
24	3954791	371.805034642	2.201620005
24	3959477	372.10415687	0.299122228
24	3968400	372.728786243	0.624629373
24	3978611	373.60378147	0.874995227
24	3985828	374.050756842	0.446975372
24	3988643	374.273519136	0.222762294
24	3994767	374.994586562	0.721067426
24	4005008	375.804100839	0.809514277
24	4009393	376.142949576	0.338848737
24	4018735	377.025906718	0.882957142
24	4020589	377.191083754	0.165177036
24	4025396	377.563532822	0.372449068
24	4039187	378.681507606	1.117974784
24	4054719	379.703081297	1.021573691
24	4056091	379.8744168	0.171335503
24	4075684	381.283673138	1.409256338
24	4080059	381.673263647	0.389590509
24	4081771	381.853116698	0.179853051
24	4088094	382.288681946	0.435565248
24	4088380	382.304076287	0.015394341
24	4122458	384.341104538	2.037028251
24	4163721	387.364178945	3.023074407
24	4176843	388.766425341	1.402246396
24	4187682	389.645840474	0.879415133
24	4212147	392.197551093	2.551710619
24	4217676	392.679104763	0.48155367
24	4241670	394.577653116	1.898548353
24	4245663	394.855623214	0.277970098
24	4251199	395.304066991	0.448443777
24	4252599	395.483505313	0.179438322
24	4252967	395.530054121	0.046548808
24	4255744	395.805342772	0.275288651
24	4255991	395.840990533	0.035647761
24	4273611	397.868329288	2.027338755
24	4280298	398.400055669	0.531726381
24	4310252	401.161636973	2.761581304
24	4338572	403.655871992	2.494235019
24	4353130	404.861023753	1.205151761
24	4353683	404.918333141	0.057309388
24	4353997	404.945413909	0.027080768
24	4387773	407.712923326	2.767509417
24	4398010	408.411552958	0.698629632
24	4405018	408.977176172	0.565623214
24	4418193	410.039101918	1.061925746
24	4421761	410.318709239	0.279607321
24	4425846	410.560623388	0.241914149
24	4451482	412.570394811	2.009771423
24	4451745	412.583297055	0.012902244
24	4461967	413.250748138	0.667451083
24	4476912	414.382101223	1.131353085
24	4477748	414.451561343	0.06946012
24	4489271	415.59018685	1.138625507
24	4501507	416.813604939	1.223418089
24	4523543	418.103648964	1.290044025
24	4524916	418.212259269	0.108610305
24	4535696	418.921086048	0.708826779
24	4538763	419.148487415	0.227401367
24	4544878	419.629711666	0.481224251
24	4547504	419.93304133	0.303329664
24	4556805	420.469458279	0.536416949
24	4574816	421.61066612	1.141207841
24	4578775	421.842650921	0.231984801
24	4583058	422.149959587	0.307308666
24	4602895	423.749769267	1.59980968
24	4604212	423.864151748	0.114382481
24	4611179	424.393919044	0.529767296
24	4613543	424.681657631	0.287738587
24	4623989	425.73985398	1.058196349
24	4640044	427.236357121	1.496503141
24	4648329	427.842450925	0.606093804
24	4688761	430.900104192	3.057653267
24	4733414	434.229153318	3.329049126
24	4750126	435.475943735	1.246790417
24	4755352	436.014153334	0.538209599
24	4756123	436.05968474	0.045531406
24	4771942	437.105293262	1.045608522
24	4779700	437.741081621	0.635788359
24	4781626	437.912018158	0.170936537
24	4782392	437.978758194	0.066740036
24	4793371	438.603546007	0.624787813
24	4808244	439.562928532	0.959382525
24	4824600	440.535653135	0.972724603
24	4832980	441.216535128	0.680881993
24	4841323	441.764127826	0.547592698
24	4850868	442.243495436	0.47936761
24	4853101	442.375854872	0.132359436
24	4856256	442.507203941	0.131349069
24	4869027	443.368120737	0.860916796
24	4896544	445.158217432	1.790096695
24	4898325	445.293593551	0.135376119
24	4900847	445.481536667	0.187943116
24	4927376	447.129827595	1.648290928
24	4931241	447.324608107	0.194780512
24	4945895	448.340657625	1.016049518
24	4947996	448.444135668	0.103478043
24	4950509	448.61279561	0.168659942
24	4955798	449.109934564	0.497138954
24	4972429	450.391571473	1.281636909
24	4979868	450.864992724	0.473421251
24	4980478	450.902959229	0.037966505
24	4985226	451.381052905	0.478093676
24	5000302	452.128355532	0.747302627
24	5008246	452.713843043	0.585487511
24	5010786	452.896044503	0.18220146
24	5039767	454.846476349	1.950431846
24	5049746	455.433687745	0.587211396
24	5050574	455.492739561	0.059051816
24	5052180	455.602640372	0.109900811
24	5052721	455.652337099	0.049696727
24	5059740	456.144099859	0.49176276
24	5070432	457.067251322	0.923151463
24	5079336	457.619617374	0.552366052
24	5081916	457.826878656	0.207261282
24	5082531	457.864458466	0.03757981
24	5083154	457.895094919	0.030636453
24	5093984	458.613148638	0.718053719
24	5102868	459.315007758	0.70185912
24	5103385	459.360099222	0.045091464
24	5105628	459.588706661	0.228607439
24	5107754	459.855480791	0.26677413
24	5111494	460.209541069	0.354060278
24	5118734	461.018503596	0.808962527
24	5119106	461.054063142	0.035559546
24	5120216	461.157324027	0.103260885
24	5127290	461.848701717	0.69137769
24	5144455	463.39439421	1.545692493
24	5156352	464.715709651	1.321315441
24	5167194	465.884646018	1.168936367
24	5168439	466.022583646	0.137937628
24	5168570	466.032416056	0.00983241
24	5171834	466.199270318	0.166854262
24	5172580	466.247345835	0.048075517
24	5175171	466.455014025	0.20766819
24	5180524	466.856616852	0.401602827
24	5181718	466.96049436	0.103877508
24	5183362	467.136810577	0.176316217
24	5188833	467.591791188	0.454980611
24	5200627	468.451188293	0.859397105
24	5220695	470.007828244	1.556639951
24	5222439	470.149258408	0.141430164
24	5227378	470.651576375	0.502317967
24	5247220	472.48653158	1.834955205
24	5249518	472.686094493	0.199562913
24	5252706	472.93902022	0.252925727
24	5255881	473.158717938	0.219697718
24	5281216	475.475181448	2.31646351
24	5283482	475.640363128	0.16518168
24	5285730	475.864142625	0.223779497
24	5286831	475.971578753	0.107436128
24	5289680	476.218083512	0.246504759
24	5313322	478.03491952	1.816836008
24	5325303	478.873773675	0.838854155
24	5329668	479.091316435	0.21754276
24	5346288	480.319939419	1.228622984
24	5362543	481.332248526	1.012309107
24	5373711	482.074220089	0.741971563
24	5391348	483.339266935	1.265046846
24	5392328	483.428205861	0.088938926
24	5400175	484.066681348	0.638475487
24	5407414	484.623061467	0.556380119
24	5426437	486.072717228	1.449655761
24	5431213	486.359465934	0.286748706
24	5432614	486.461937744	0.10247181
24	5437798	486.864079282	0.402141538
24	5443252	487.298274141	0.434194859
24	5447617	487.622495685	0.324221544
24	5460061	488.661874083	1.039378398
24	5465104	489.214201769	0.552327686
24	5466415	489.316577384	0.102375615
24	5468529	489.501707674	0.18513029
24	5472820	489.898854337	0.397146663
24	5508153	493.164697667	3.26584333
24	5508545	493.18528697	0.020589303
24	5537337	495.312116411	2.126829441
24	5545245	495.960248876	0.648132465
24	5575120	497.663818373	1.703569497
24	5575322	497.680328731	0.016510358
24	5579421	497.976281544	0.295952813
24	5608341	499.482944409	1.506662865
24	5612453	499.819767304	0.336822895
24	5616144	500.083118126	0.263350822
24	5618333	500.231826602	0.148708476
24	5623335	500.546393169	0.314566567
24	5628102	500.756620562	0.210227393
24	5632265	500.976680011	0.220059449
24	5634502	501.1282919	0.151611889
24	5637749	501.417867751	0.289575851
24	5649480	502.139739443	0.721871692
24	5652914	502.378370094	0.238630651
24	5680071	504.841525239	2.463155145
24	5689668	505.36473911	0.523213871
24	5698772	506.04859166	0.68385255
24	5702648	506.434485987	0.385894327
24	5713480	507.421010154	0.986524167
24	5734817	508.816319932	1.395309778
24	5745843	509.682131828	0.865811896
24	5757638	510.621610402	0.939478574
24	5778875	512.179942676	1.558332274
24	5780010	512.25049725	0.070554574
24	5789622	512.730800957	0.480303707
24	5802379	513.756965097	1.02616414
24	5813925	514.616992869	0.860027772
24	5816450	514.845126779	0.22813391
24	5827269	515.706397636	0.861270857
24	5832751	516.133580708	0.427183072
24	5835361	516.346593753	0.213013045
24	5853104	518.052447824	1.705854071
24	5853777	518.13246306	0.080015236
24	5872936	519.686774062	1.554311002
24	5875761	519.941000174	0.254226112
24	5882707	520.645243014	0.70424284
24	5895234	521.677064462	1.031821448
24	5906551	522.729819988	1.052755526
24	5918921	524.024083075	1.294263087
24	5925783	524.761136839	0.737053764
24	5934560	525.477440844	0.716304005
24	5940466	526.046982018	0.569541174
24	5951518	526.954044626	0.907062608
24	5952940	527.045314462	0.091269836
24	5952971	527.047686916	0.002372454
24	5958162	527.418460504	0.370773588
24	5960365	527.598904494	0.18044399
24	5961613	527.71480712	0.115902626
24	5964110	527.947121965	0.232314845
24	5979186	529.58297656	1.635854595
24	5979203	529.585875205	0.002898645
24	5980344	529.714601605	0.1287264
24	5987396	530.504652032	0.790050427
24	5992493	530.883239006	0.378586974
24	6000179	531.25569409	0.372455084
24	6007565	531.810813957	0.555119867
24	6008460	531.90567109	0.094857133
24	6029070	533.427328159	1.521657069
24	6039204	534.272055734	0.844727575
24	6046616	534.894646131	0.622590397
24	6073596	536.874252326	1.979606195
24	6090708	538.274612159	1.400359833
24	6105548	539.384481811	1.109869652
24	6116454	540.118673942	0.734192131
24	6120150	540.378473693	0.259799751
24	6124037	540.740138404	0.361664711
24	6127362	541.074424034	0.33428563
24	6146680	543.054804947	1.980380913
24	6151309	543.379530303	0.324725356
24	6167009	544.737579877	1.358049574
24	6185892	546.335592658	1.598012781
24	6186282	546.361601041	0.026008383
24	6198027	547.2201697	0.858568659
24	6204023	547.681729853	0.461560153
24	6204675	547.748064132	0.066334279
24	6243143	551.162742986	3.414678854
24	6249621	551.63311138	0.470368394
24	6253325	551.908012194	0.274900814
24	6259789	552.371520761	0.463508567
24	6268107	552.926219559	0.554698798
24	6269669	553.048129926	0.121910367
24	6271862	553.258972751	0.210842825
24	6273171	553.401219037	0.142246286
24	6279618	553.951590501	0.550371464
24	6283720	554.257028464	0.305437963
24	6288372	554.571555069	0.314526605
24	6300418	555.768468493	1.196913424
24	6301331	555.830699605	0.062231112
24	6310883	556.78332899	0.952629385
24	6314764	557.181404093	0.398075103
24	6326814	557.997241948	0.815837855
24	6345254	559.516167663	1.518925715
24	6368035	561.272360073	1.75619241
24	6376694	561.906193919	0.633833846
24	6412610	564.616453664	2.710259745
24	6429709	565.715207588	1.098753924
24	6432264	565.879446563	0.164238975
24	6432617	565.903864333	0.02441777
24	6432759	565.917190987	0.013326654
24	6443990	566.648945757	0.73175477
24	6447634	566.917659715	0.268713958
24	6467120	568.478327413	1.560667698
24	6480724	569.40878199	0.930454577
24	6487587	570.005592362	0.596810372
24	6511192	571.825776435	1.820184073
24	6515121	572.125870593	0.300094158
24	6519801	572.535419854	0.409549261
24	6532410	573.855394938	1.319975084
24	6533017	573.914209036	0.058814098
24	6533663	573.980829602	0.066620566
24	6537355	574.350615031	0.369785429
24	6546513	575.271529096	0.920914065
24	6548232	575.407734542	0.136205446
24	6586125	578.47445373	3.066719188
24	6588422	578.618152167	0.143698437
24	6603734	579.78089076	1.162738593
24	6617159	580.601255796	0.820365036
24	6636759	582.125457194	1.524201398
24	6674480	584.696027075	2.570569881
24	6683624	585.535623389	0.839596314
24	6694003	586.602135005	1.066511616
24	6704862	587.81474186	1.212606855
24	6707382	588.06421174	0.24946988
24	6710362	588.269232755	0.205021015
24	6711602	588.39808042	0.128847665
24	6714592	588.669180776	0.271100356
24	6718100	588.910836244	0.241655468
24	6720435	589.108591875	0.197755631
24	6721404	589.198410657	0.089818782
24	6722603	589.32402459	0.125613933
24	6724160	589.50313399	0.1791094
24	6732460	590.503803087	1.000669097
24	6739864	591.217233318	0.713430231
24	6744303	591.645239696	0.428006378
24	6750382	592.165913986	0.52067429
24	6755846	592.587991762	0.422077776
24	6785474	594.746523554	2.158531792
24	6788521	595.035154146	0.288630592
24	6791339	595.414003796	0.37884965
24	6797090	596.127073856	0.71307006
24	6811054	597.781336831	1.654262975
24	6821536	598.628767468	0.847430637
24	6822789	598.758779633	0.130012165
24	6826918	599.115109606	0.356329973
24	6843503	600.441174151	1.326064545
24	6854957	601.165990579	0.724816428
24	6866963	601.833689265	0.667698686
24	6869487	602.059377056	0.225687791
24	6873805	602.344286033	0.284908977
24	6884751	603.318768277	0.974482244
24	6895309	604.191580086	0.872811809
24	6903455	604.938366228	0.746786142
24	6929787	607.386981009	2.448614781
24	6937093	607.893711395	0.506730386
24	6939758	608.059923455	0.16621206
24	6950822	608.848139817	0.788216362
24	6957059	609.299039902	0.450900085
24	6961115	609.608752618	0.309712716
24	6967046	610.086501033	0.477748415
24	6973133	610.719884191	0.633383158
24	6993373	612.58436546	1.864481269
24	7008635	613.721376471	1.137011011
24	7016753	614.371228971	0.6498525
24	7023862	614.896643955	0.525414984
24	7049992	616.878427931	1.981783976
24	7069622	618.380288478	1.501860547
24	7081663	619.087409768	0.70712129
24	7094237	620.009511564	0.922101796
24	7100825	620.526833876	0.517322312
24	7103238	620.719380539	0.192546663
24	7107760	620.978801134	0.259420595
24	7152692	624.385028614	3.40622748
24	7157433	624.752442261	0.367413647
24	7169007	625.653814274	0.901372013
24	7199221	627.876907302	2.223093028
24	7204781	628.380381205	0.503473903
24	7210922	628.925277649	0.544896444
24	7216805	629.473487604	0.548209955
24	7218970	629.687604057	0.214116453
24	7224065	630.12692218	0.439318123
24	7229621	630.578532026	0.451609846
24	7242173	631.575689116	0.99715709
24	7242852	631.63906508	0.063375964
24	7254166	632.281583946	0.642518866
24	7283619	634.837666988	2.556083042
24	7296452	635.936502798	1.09883581
24	7319535	637.722745334	1.786242536
24	7321662	637.881018458	0.158273124
24	7331205	638.517029234	0.636010776
24	7343621	639.867496582	1.350467348
24	7345529	639.992202411	0.124705829
24	7371498	642.126701554	2.134499143
24	7391114	644.434652365	2.307950811
24	7398861	645.142641998	0.707989633
24	7435244	648.749998924	3.607356926
24	7442662	649.170083766	0.420084842
24	7446387	649.414286948	0.244203182
24	7452914	649.924939696	0.510652748
24	7464794	650.779197585	0.854257889
24	7465438	650.819551913	0.040354328
24	7469842	651.095608951	0.276057038
24	7484381	652.220524214	1.124915263
24	7486198	652.346278556	0.125754342
24	7520941	655.042146797	2.695868241
24	7524519	655.307647663	0.265500866
24	7543189	656.649269738	1.341622075
24	7543459	656.671015845	0.021746107
24	7548914	657.091777614	0.420761769
24	7560435	658.041954536	0.950176922
24	7572374	658.895414864	0.853460328
24	7579811	659.562287447	0.666872583
24	7592123	660.654099276	1.091811829
24	7600457	661.446629341	0.792530065
24	7602515	661.587233838	0.140604497
24	7606691	661.777987408	0.19075357
24	7619717	663.011851224	1.233863816
24	7630130	663.796737265	0.784886041
24	7631691	663.891492543	0.094755278
24	7642333	664.645250679	0.753758136
24	7644556	664.828890318	0.183639639
24	7652484	665.590782507	0.761892189
24	7662944	666.532554456	0.941771949
24	7672370	667.232182505	0.699628049
24	7675204	667.398342266	0.166159761
24	7687744	668.343258584	0.944916318
24	7695911	668.75349955	0.410240966
24	7715385	670.108790317	1.355290767
24	7740553	671.744163317	1.635373
24	7754269	672.791837749	1.047674432
24	7762136	673.340360804	0.548523055
24	7768217	673.781735577	0.441374773
24	7768649	673.817624185	0.035888608
24	7771770	674.057489088	0.239864903
24	7774214	674.241168657	0.183679569
24	7774874	674.293411023	0.052242366
24	7786929	675.150436811	0.857025788
24	7799383	676.265199588	1.114762777
24	7816655	677.36154671	1.096347122
24	7821527	677.713020194	0.351473484
24	7844962	679.318436895	1.605416701
24	7862122	680.673238437	1.354801542
24	7866424	680.909189151	0.235950714
24	7874920	681.437246486	0.528057335
24	7879233	681.873673965	0.436427479
24	7883966	682.084082838	0.210408873
24	7903011	683.472122277	1.388039439
24	7909181	683.792876275	0.320753998
24	7918470	684.479127811	0.686251536
24	7918947	684.523847038	0.044719227
24	7923589	684.859037433	0.335190395
24	7942038	686.105082668	1.246045235
24	7946293	686.428314368	0.3232317
24	7950421	686.671906335	0.243591967
24	7951587	686.756861228	0.084954893
24	7961246	687.47428497	0.717423742
24	7976050	688.733010922	1.258725952
24	7977070	688.85162204	0.118611118
24	7978719	688.957018489	0.105396449