version 2
run KademliaDHT-4-20211202-22:07:35-9356
attr Lifetime 500s
attr configname KademliaDHT
attr datetime 20211202-22:07:35
attr experiment KademliaDHT
attr inifile configs.ini
attr iterationvars $Lifetime=500s
attr iterationvars2 "$Lifetime=500s, $repetition=0"
attr measurement $Lifetime=500s
attr network oversim.underlay.simpleunderlay.SimpleUnderlayNetwork
attr processid 9356
attr repetition 0
attr replication #0
attr resultdir results
attr runnumber 4
attr seedset 4

vector 29  SimpleUnderlayNetwork.globalObserver.globalStatistics  "GlobalNodeList: Number of nodes"  ETV
vector 30  SimpleUnderlayNetwork.globalObserver.globalStatistics  "GlobalDhtTestMap: Number of stored DHT entries"  ETV
vector 31  SimpleUnderlayNetwork.globalObserver.globalStatistics  "LifetimeChurn: Time between deletes"  ETV
vector 32  SimpleUnderlayNetwork.globalObserver.globalStatistics  "Kademlia: Buckets Refreshed Per Task"  ETV
vector 33  SimpleUnderlayNetwork.globalObserver.globalStatistics  "LifetimeChurn: Session Time"  ETV
vector 34  SimpleUnderlayNetwork.globalObserver.globalStatistics  "LifetimeChurn: Time between creates"  ETV
29	1331138	150	530
29	1985502	200	526
29	2641551	250	531
29	3267249	300	514
29	3900907	350	521
29	4508468	400	519
29	5155564	450	510
29	5756791	500	510
29	6381332	550	509
29	6971606	600	505
29	7613651	650	509
29	8227251	700	510
29	8852942	750	516
29	9473163	800	517
29	10122576	850	517
29	10747261	900	521
29	11414705	950	529
29	12031572	1000	502
29	12730958	1050	500
29	13403708	1100	491
30	1331139	150	727
30	1456176	160	811
30	1586318	170	887
30	1725247	180	958
30	1863057	190	1021
30	1985503	200	1093
30	2122555	210	1208
30	2253084	220	1286
30	2394995	230	1370
30	2509830	240	1433
30	2641552	250	1507
30	2781031	260	1589
30	2895060	270	1685
30	3009446	280	1771
30	3133910	290	1850
30	3267250	300	1925
30	3388577	310	1984
30	3509440	320	2056
30	3650226	330	2147
30	3775684	340	2235
30	3900908	350	2321
30	4039186	360	2385
30	4147263	370	2381
30	4268327	380	2380
30	4385256	390	2369
30	4508469	400	2366
30	4647749	410	2370
30	4776265	420	2403
30	4905477	430	2416
30	5032010	440	2413
30	5155565	450	2379
30	5268978	460	2371
30	5381654	470	2390
30	5505784	480	2392
30	5636999	490	2396
30	5756792	500	2409
30	5878002	510	2372
30	6000332	520	2382
30	6128815	530	2378
30	6256536	540	2389
30	6381333	550	2387
30	6505107	560	2374
30	6630475	570	2363
30	6739465	580	2345
30	6857124	590	2355
30	6971607	600	2362
30	7107013	610	2371
30	7243619	620	2369
30	7372585	630	2360
30	7493887	640	2348
30	7613652	650	2333
30	7723646	660	2336
30	7833537	670	2332
30	7957320	680	2319
30	8092838	690	2316
30	8227252	700	2317
30	8337823	710	2315
30	8450626	720	2314
30	8578360	730	2303
30	8713960	740	2305
30	8852943	750	2324
30	8983226	760	2321
30	9095894	770	2312
30	9230402	780	2309
30	9343842	790	2310
30	9473164	800	2309
30	9594607	810	2318
30	9727161	820	2302
30	9850516	830	2291
30	9990302	840	2316
30	10122577	850	2319
30	10236648	860	2325
30	10364509	870	2316
30	10494745	880	2339
30	10619737	890	2331
30	10747262	900	2331
30	10863888	910	2347
30	10987522	920	2357
30	11123198	930	2352
30	11264791	940	2360
30	11414706	950	2373
30	11550235	960	2373
30	11670259	970	2389
30	11787030	980	2389
30	11901985	990	2381
30	12031573	1000	2379
30	12196814	1010	2384
30	12331453	1020	2378
30	12466817	1030	2389
30	12595033	1040	2381
30	12730959	1050	2358
30	12876891	1060	2368
30	13023046	1070	2376
30	13150623	1080	2374
30	13271073	1090	2368
30	13403709	1100	2344
30	13532502	1110	2341
30	13664727	1120	2349
30	13810824	1130	2373
30	13917418	1140	2333
31	1331450	150.029954853	0.041775571
31	1334233	150.211632952	0.181678099
31	1351189	151.438280152	1.2266472
31	1354120	151.810624029	0.372343877
31	1371362	153.547725909	1.73710188
31	1391233	155.203943642	1.656217733
31	1406256	156.345855446	1.141911804
31	1418286	157.101088637	0.755233191
31	1428528	157.901586828	0.800498191
31	1458503	160.202356426	2.300769598
31	1459769	160.347059161	0.144702735
31	1465422	161.047477846	0.700418685
31	1466437	161.170582933	0.123105087
31	1483275	162.481190818	1.310607885
31	1510474	164.422165154	1.940974336
31	1515454	164.834307108	0.412141954
31	1532309	166.206522233	1.372215125
31	1558879	168.111924762	1.905402529
31	1568136	168.531681969	0.419757207
31	1587968	170.127393132	1.595711163
31	1610239	171.69689745	1.569504318
31	1625778	172.7698102	1.07291275
31	1626366	172.811431923	0.041621723
31	1638847	173.700149234	0.888717311
31	1651937	174.493440702	0.793291468
31	1663145	175.350872112	0.85743141
31	1691539	177.680189744	2.329317632
31	1699309	178.312617792	0.632428048
31	1724245	179.916162833	1.603545041
31	1736187	180.7683569	0.852194067
31	1745053	181.684682184	0.916325284
31	1749174	181.940279437	0.255597253
31	1757009	182.415408413	0.475128976
31	1790836	185.061038418	2.645630005
31	1809979	186.288056416	1.227017998
31	1828356	187.664970588	1.376914172
31	1867605	190.385851729	2.720881141
31	1909116	193.953608763	3.567757034
31	1909233	193.969201546	0.015592783
31	1918042	194.644379322	0.675177776
31	1921245	194.882091745	0.237712423
31	1929130	195.646507731	0.764415986
31	1968292	198.679512148	3.033004417
31	1971102	198.874424304	0.194912156
31	1978957	199.397213335	0.522789031
31	2002006	201.148245943	1.751032608
31	2016408	202.133588331	0.985342388
31	2028444	203.053088468	0.919500137
31	2054610	204.879422369	1.826333901
31	2083558	207.264403872	2.384981503
31	2084049	207.298804592	0.03440072
31	2086551	207.441726424	0.142921832
31	2088525	207.544542279	0.102815855
31	2119543	209.750104509	2.20556223
31	2124977	210.177451404	0.427346895
31	2143949	211.555930951	1.378479547
31	2166993	213.558408155	2.002477204
31	2181754	214.568206593	1.009798438
31	2230535	218.338607518	3.770400925
31	2230921	218.365853535	0.027246017
31	2236143	218.725345692	0.359492157
31	2250765	219.785649176	1.060303484
31	2274554	221.774354849	1.988705673
31	2283479	222.461789339	0.68743449
31	2309148	223.944512007	1.482722668
31	2317605	224.449191538	0.504679531
31	2336012	225.838940307	1.389748769
31	2341458	226.249599522	0.410659215
31	2347146	226.616276734	0.366677212
31	2382188	228.810355537	2.194078803
31	2402656	230.653024732	1.842669195
31	2404234	230.74972461	0.096699878
31	2409664	231.125985959	0.376261349
31	2419247	231.831239824	0.705253865
31	2430818	232.606685682	0.775445858
31	2433571	232.870751052	0.26406537
31	2443925	233.829475596	0.958724544
31	2445711	234.008145281	0.178669685
31	2448778	234.440951888	0.432806607
31	2475596	236.758092385	2.317140497
31	2484095	237.374692789	0.616600404
31	2496120	238.541043897	1.166351108
31	2496961	238.597169039	0.056125142
31	2505970	239.532214397	0.935045358
31	2507755	239.785110382	0.252895985
31	2521524	241.142940128	1.357829746
31	2545904	243.021952816	1.879012688
31	2549141	243.205829944	0.183877128
31	2549713	243.242244214	0.03641427
31	2551462	243.374607853	0.132363639
31	2555055	243.654183771	0.279575918
31	2569848	244.904735154	1.250551383
31	2604628	246.945467947	2.040732793
31	2610124	247.24731307	0.301845123
31	2616518	247.682798031	0.435484961
31	2639588	249.7867941	2.103996069
31	2653516	250.999880812	1.213086712
31	2684010	253.332673103	2.332792291
31	2698244	254.321122916	0.988449813
31	2703052	254.625356339	0.304233423
31	2705498	254.780851127	0.155494788
31	2714155	255.303449248	0.522598121
31	2717504	255.468391629	0.164942381
31	2718377	255.514103406	0.045711777
31	2730165	256.245550965	0.731447559
31	2743802	257.217311218	0.971760253
31	2753616	257.997451833	0.780140615
31	2768198	259.074493164	1.077041331
31	2770030	259.246750737	0.172257573
31	2792000	260.96329183	1.716541093
31	2795638	261.232401452	0.269109622
31	2802218	261.665112959	0.432711507
31	2802940	261.718560624	0.053447665
31	2803748	261.782984472	0.064423848
31	2805969	261.98734783	0.204363358
31	2811298	262.530545993	0.543198163
31	2817379	263.011224707	0.480678714
31	2841853	265.090419323	2.079194616
31	2843459	265.295315676	0.204896353
31	2860735	266.793990723	1.498675047
31	2868476	267.396382255	0.602391532
31	2885116	268.80851453	1.412132275
31	2897762	270.288689655	1.480175125
31	2900955	270.598923617	0.310233962
31	2907585	271.13592399	0.537000373
31	2910046	271.322973487	0.187049497
31	2922935	272.257563288	0.934589801
31	2928855	272.804268928	0.54670564
31	2967982	276.146245565	3.341976637
31	2969209	276.259100749	0.112855184
31	2973146	276.528555446	0.269454697
31	2983342	277.414780887	0.886225441
31	3007888	279.878338339	2.463557452
31	3011840	280.231206619	0.35286828
31	3019286	280.818785513	0.587578894
31	3021480	280.961494026	0.142708513
31	3028568	281.446672928	0.485178902
31	3035953	282.064069269	0.617396341
31	3055340	283.635574793	1.571505524
31	3055416	283.639543057	0.003968264
31	3061549	284.07861625	0.439073193
31	3061990	284.111880509	0.033264259
31	3064992	284.335000727	0.223120218
31	3070489	284.841567816	0.506567089
31	3083439	285.771382124	0.929814308
31	3108390	287.546671466	1.775289342
31	3140250	290.41674224	2.870070774
31	3143620	290.656555943	0.239813703
31	3154853	291.304341792	0.647785849
31	3174943	292.601666121	1.297324329
31	3189643	293.840991938	1.239325817
31	3191592	293.980240095	0.139248157
31	3203072	294.793083244	0.812843149
31	3235374	297.394557424	2.60147418
31	3258340	299.304534081	1.909976657
31	3270793	300.257329418	0.952795337
31	3307418	303.110130929	2.852801511
31	3312331	303.534322205	0.424191276
31	3327816	304.777911636	1.243589431
31	3329971	305.011059472	0.233147836
31	3336071	305.534814761	0.523755289
31	3342741	305.968624258	0.433809497
31	3344702	306.125842356	0.157218098
31	3418692	312.051959183	5.926116827
31	3424040	312.400395217	0.348436034
31	3481353	317.559193159	5.158797942
31	3482062	317.603814027	0.044620868
31	3495159	318.700299414	1.096485387
31	3503366	319.602128207	0.901828793
31	3515892	320.396174479	0.794046272
31	3527497	321.132698684	0.736524205
31	3537533	322.072542471	0.939843787
31	3539423	322.280079081	0.20753661
31	3575567	325.136938897	2.856859816
31	3601925	327.060172693	1.923233796
31	3608712	327.542669451	0.482496758
31	3646274	329.758137572	2.215468121
31	3658254	330.572201104	0.814063532
31	3658781	330.610871001	0.038669897
31	3666385	331.0845583	0.473687299
31	3685693	332.649397766	1.564839466
31	3689552	332.920209949	0.270812183
31	3701581	333.936659666	1.016449717
31	3709065	334.452089887	0.515430221
31	3727325	335.977016914	1.524927027
31	3728610	336.080947734	0.10393082
31	3731598	336.30867875	0.227731016
31	3767833	339.186388477	2.877709727
31	3789993	341.509204002	2.322815525
31	3811201	343.06402454	1.554820538
31	3820142	343.760444017	0.696419477
31	3820359	343.778529016	0.018084999
31	3824742	344.200514846	0.42198583
31	3835616	345.142378348	0.941863502
31	3879430	348.178758528	3.03638018
31	3880122	348.258364746	0.079606218
31	3897182	349.588854182	1.330489436
31	3899751	349.897256468	0.308402286
31	3902184	350.119324895	0.222068427
31	3911898	350.761233275	0.64190838
31	3921842	351.519931609	0.758698334
31	3930300	352.162061884	0.642130275
31	3965363	354.770799854	2.60873797
31	3997101	357.008097254	2.2372974
31	4015359	358.319848167	1.311750913
31	4024377	358.98788621	0.668038043
31	4072510	363.141347045	4.153460835
31	4075561	363.471309401	0.329962356
31	4075767	363.495821068	0.024511667
31	4080264	363.946388101	0.450567033
31	4081675	364.052780816	0.106392715
31	4101028	366.269092015	2.216311199
31	4101343	366.307617319	0.038525304
31	4107801	366.854704613	0.547087294
31	4108900	366.924650583	0.06994597
31	4125262	368.19280924	1.268158657
31	4146105	369.887803857	1.694994617
31	4160014	371.126638689	1.238834832
31	4161714	371.267083242	0.140444553
31	4165756	371.658684526	0.391601284
31	4167659	371.82306278	0.164378254
31	4201938	374.543185211	2.720122431
31	4213415	375.596912173	1.053726962
31	4244487	378.172835603	2.57592343
31	4302430	382.901305785	4.728470182
31	4320691	384.445366518	1.544060733
31	4334930	385.467848511	1.022481993
31	4337862	385.690991288	0.223142777
31	4417648	393.087500424	7.396509136
31	4419837	393.350179395	0.262678971
31	4421063	393.47895351	0.128774115
31	4421348	393.525455163	0.046501653
31	4422836	393.708008716	0.182553553
31	4424318	393.878797374	0.170788658
31	4426150	394.086922571	0.208125197
31	4486702	398.562157444	4.475234873
31	4498575	399.47423462	0.912077176
31	4504474	399.73086678	0.25663216
31	4523999	401.115785136	1.384918356
31	4525561	401.208370621	0.092585485
31	4525956	401.235025636	0.026655015
31	4562255	403.930419568	2.695393932
31	4563070	404.003741904	0.073322336
31	4570472	404.53459828	0.530856376
31	4580026	405.121290988	0.586692708
31	4585579	405.496018986	0.374727998
31	4595914	406.11866157	0.622642584
31	4602553	406.569587983	0.450926413
31	4609624	407.226542805	0.656954822
31	4611971	407.446210579	0.219667774
31	4638215	409.306342581	1.860132002
31	4640107	409.468233585	0.161891004
31	4648779	410.108606654	0.640373069
31	4648882	410.116654307	0.008047653
31	4662175	411.236340908	1.119686601
31	4679391	412.428181783	1.191840875
31	4700055	414.14831159	1.720129807
31	4711343	414.991524432	0.843212842
31	4743822	417.300523445	2.308999013
31	4749849	417.757803278	0.457279833
31	4769510	419.37316544	1.615362162
31	4787549	420.887638229	1.514472789
31	4804989	422.590848484	1.703210255
31	4813100	423.360878341	0.770029857
31	4831604	424.70577362	1.344895279
31	4832569	424.759087768	0.053314148
31	4843834	425.685872844	0.926785076
31	4847479	425.999199607	0.313326763
31	4860527	426.91134161	0.912142003
31	4862628	427.066155437	0.154813827
31	4885599	428.758993164	1.692837727
31	4889659	428.967219742	0.208226578
31	4906230	430.054214831	1.086995089
31	4910600	430.386349933	0.332135102
31	4914391	430.677964691	0.291614758
31	4920781	431.137569707	0.459605016
31	4927123	431.766389881	0.628820174
31	4943183	432.880621621	1.11423174
31	4944474	432.999453103	0.118831482
31	4953716	433.96035621	0.960903107
31	4955708	434.168520924	0.208164714
31	4958453	434.453121385	0.284600461
31	4998175	437.636534768	3.183413383
31	5009703	438.35141073	0.714875962
31	5014396	438.711968402	0.360557672
31	5025455	439.587528619	0.875560217
31	5025910	439.617563855	0.030035236
31	5037640	440.356198082	0.738634227
31	5042829	440.740253111	0.384055029
31	5085667	444.612146924	3.871893813
31	5122041	447.641135101	3.028988177
31	5125136	447.945156469	0.304021368
31	5155629	450.004893754	2.059737285
31	5160719	450.466666221	0.461772467
31	5165691	450.967408435	0.500742214
31	5174688	451.798163703	0.830755268
31	5194868	453.483339051	1.685175348
31	5229394	456.343401823	2.860062772
31	5258935	459.083292339	2.739890516
31	5259180	459.100615128	0.017322789
31	5265929	459.688739268	0.58812414
31	5285719	461.14567587	1.456936602
31	5304646	462.826686833	1.681010963
31	5306247	463.059620842	0.232934009
31	5313759	463.76730035	0.707679508
31	5318938	464.25437799	0.48707764
31	5321183	464.46973518	0.21535719
31	5326977	465.144640671	0.674905491
31	5341179	466.430380227	1.285739556
31	5344158	466.738879771	0.308499544
31	5377441	469.687631644	2.948751873
31	5384317	470.20344006	0.515808416
31	5387999	470.517367709	0.313927649
31	5402067	471.654653232	1.137285523
31	5413380	472.254731472	0.60007824
31	5419763	472.792087221	0.537355749
31	5457700	475.362260119	2.570172898
31	5460177	475.61024198	0.247981861
31	5465501	476.017685493	0.407443513
31	5466621	476.1179594	0.100273907
31	5500477	479.54336172	3.42540232
31	5506942	480.096444022	0.553082302
31	5510968	480.408884777	0.312440755
31	5516224	481.009193927	0.60030915
31	5523703	481.644212814	0.635018887
31	5537422	482.827396849	1.183184035
31	5573905	485.548033558	2.720636709
31	5577141	485.7271869	0.179153342
31	5582681	486.148731294	0.421544394
31	5605372	487.702066397	1.553335103
31	5611307	488.067713112	0.365646715
31	5621754	488.757556306	0.689843194
31	5626376	489.032538708	0.274982402
31	5636046	489.900196842	0.867658134
31	5638228	490.129313101	0.229116259
31	5652604	491.331480969	1.202167868
31	5667119	492.472311897	1.140830928
31	5667528	492.510348991	0.038037094
31	5669490	492.677399016	0.167050025
31	5676927	493.460861876	0.78346286
31	5682842	494.08060281	0.619740934
31	5690757	494.643158143	0.562555333
31	5704888	495.884339734	1.241181591
31	5721601	497.177372979	1.293033245
31	5724584	497.45650986	0.279136881
31	5725179	497.529604744	0.073094884
31	5742956	498.964295447	1.434690703
31	5753918	499.868726049	0.904430602
31	5757470	500.034279053	0.165553004
31	5760856	500.192751596	0.158472543
31	5761964	500.248459613	0.055708017
31	5770462	500.996305664	0.747846051
31	5789710	502.637884882	1.641579218
31	5790671	502.757870696	0.119985814
31	5813720	504.858788984	2.100918288
31	5815862	504.997932447	0.139143463
31	5830386	506.441993387	1.44406094
31	5830690	506.464232427	0.02223904
31	5834790	506.784620689	0.320388262
31	5865817	509.011296657	2.226675968
31	5871953	509.440738836	0.429442179
31	5887391	510.74728501	1.306546174
31	5900036	511.850433101	1.103148091
31	5903379	512.089785197	0.239352096
31	5911066	512.732332285	0.642547088
31	5918459	513.591866126	0.859533841
31	5920647	513.812870404	0.221004278
31	5932574	514.645041429	0.832171025
31	5935125	514.834959464	0.189918035
31	5951509	516.002350389	1.167390925
31	5959339	516.567860848	0.565510459
31	5986504	518.891521053	2.323660205
31	5987375	518.947396395	0.055875342
31	6011372	520.823356011	1.875959616
31	6017421	521.289302569	0.465946558
31	6025890	521.919935906	0.630633337
31	6040629	523.018426871	1.098490965
31	6044518	523.24355835	0.225131479
31	6046948	523.414340765	0.170782415
31	6050534	523.698857469	0.284516704
31	6050851	523.726168729	0.02731126
31	6051209	523.756690639	0.03052191
31	6076011	525.430302658	1.673612019
31	6090140	526.332976181	0.902673523
31	6110309	528.273710926	1.940734745
31	6123578	529.510007859	1.236296933
31	6123717	529.523906887	0.013899028
31	6160882	532.191312878	2.667405991
31	6179670	533.532882152	1.341569274
31	6191702	534.528104094	0.995221942
31	6206311	535.526953239	0.998849145
31	6237098	538.264235128	2.737281889
31	6249300	539.239268162	0.975033034
31	6253889	539.746109814	0.506841652
31	6276129	541.511586825	1.765477011
31	6293616	542.698764878	1.187178053
31	6302480	543.413949761	0.715184883
31	6321561	544.543289338	1.129339577
31	6330870	545.177143643	0.633854305
31	6330996	545.190323599	0.013179956
31	6331594	545.229168255	0.038844656
31	6355407	547.270869904	2.041701649
31	6355927	547.317592213	0.046722309
31	6356332	547.363900519	0.046308306
31	6360829	547.725425625	0.361525106
31	6363016	547.933699576	0.208273951
31	6380064	549.847330074	1.913630498
31	6388512	550.511364611	0.664034537
31	6394970	550.93741104	0.426046429
31	6397824	551.183721987	0.246310947
31	6399161	551.297894136	0.114172149
31	6400295	551.399593208	0.101699072
31	6404881	551.852730761	0.453137553
31	6408900	552.253115866	0.400385105
31	6418723	552.951057029	0.697941163
31	6427347	553.720171041	0.769114012
31	6453989	556.035481555	2.315310514
31	6460476	556.563083552	0.527601997
31	6463832	556.855477793	0.292394241
31	6466969	557.130723034	0.275245241
31	6470572	557.398266383	0.267543349
31	6497228	559.249047231	1.850780848
31	6500804	559.572328051	0.32328082
31	6513607	560.662870224	1.090542173
31	6520737	561.184964048	0.522093824
31	6536840	562.336089406	1.151125358
31	6556748	563.828795173	1.492705767
31	6566240	564.708457821	0.879662648
31	6582071	565.864259137	1.155801316
31	6591820	566.659237081	0.794977944
31	6597999	567.200475767	0.541238686
31	6650985	572.096445216	4.895969449
31	6660766	573.140873409	1.044428193
31	6689889	575.939081202	2.798207793
31	6692453	576.205416825	0.266335623
31	6729403	579.325173677	3.119756852
31	6739587	580.0099671	0.684793423
31	6743390	580.285566628	0.275599528
31	6751085	580.687753996	0.402187368
31	6765376	581.680496693	0.992742697
31	6776729	582.541632126	0.861135433
31	6792987	583.86212325	1.320491124
31	6795633	584.045362634	0.183239384
31	6809273	585.33396771	1.288605076
31	6809751	585.369544604	0.035576894
31	6813123	585.695255682	0.325711078
31	6845589	588.887605836	3.192350154
31	6851126	589.456286692	0.568680856
31	6860353	590.450353469	0.994066777
31	6868476	591.353630531	0.903277062
31	6871084	591.595707565	0.242077034
31	6887805	593.44532806	1.849620495
31	6896453	594.099507786	0.654179726
31	6917386	595.658529302	1.559021516
31	6920115	595.876965135	0.218435833
31	6923856	596.227638331	0.350673196
31	6924059	596.249484118	0.021845787
31	6949543	598.260739953	2.011255835
31	6949601	598.265115749	0.004375796
31	6951114	598.375388229	0.11027248
31	6955070	598.674150535	0.298762306
31	6974952	600.401789842	1.727639307
31	6978029	600.793678534	0.391888692
31	6980146	600.961166975	0.167488441
31	6981296	601.046242832	0.085075857
31	6983780	601.196344313	0.150101481
31	6986487	601.33960967	0.143265357
31	6988578	601.464522903	0.124913233
31	7029050	604.194475826	2.729952923
31	7057468	606.390286299	2.195810473
31	7080531	608.102742096	1.712455797
31	7081752	608.193413169	0.090671073
31	7081955	608.211969563	0.018556394
31	7082220	608.230732708	0.018763145
31	7087280	608.534711688	0.30397898
31	7091057	608.794942168	0.26023048
31	7101207	609.540354203	0.745412035
31	7103614	609.706534548	0.166180345
31	7105778	609.92251554	0.215980992
31	7112847	610.324022583	0.401507043
31	7136776	612.06128238	1.737259797
31	7155977	613.346764419	1.285482039
31	7158267	613.455479424	0.108715005
31	7162919	613.674054433	0.218575009
31	7164367	613.811632165	0.137577732
31	7174187	614.842822098	1.031189933
31	7178496	615.128070651	0.285248553
31	7210111	617.632727976	2.504657325
31	7260254	621.220922314	3.588194338
31	7272977	622.303397644	1.08247533
31	7273945	622.395452338	0.092054694
31	7275651	622.605989324	0.210536986
31	7287138	623.569472578	0.963483254
31	7288352	623.677558664	0.108086086
31	7288858	623.710374742	0.032816078
31	7311284	625.305797866	1.595423124
31	7330826	626.851130724	1.545332858
31	7332215	626.948575196	0.097444472
31	7357958	628.836468771	1.887893575
31	7383667	630.843242923	2.006774152
31	7388262	631.216765183	0.37352226
31	7403556	632.592021699	1.375256516
31	7425119	634.194777482	1.602755783
31	7433411	634.851438584	0.656661102
31	7437681	635.154568513	0.303129929
31	7443135	635.463914471	0.309345958
31	7443848	635.500591614	0.036677143
31	7452975	636.336315658	0.835724044
31	7465310	637.26048588	0.924170222
31	7465681	637.288210481	0.027724601
31	7514322	641.696099728	4.407889247
31	7519515	642.073998795	0.377899067
31	7522016	642.258968123	0.184969328
31	7529302	643.085284285	0.826316162
31	7550656	645.067744231	1.982459946
31	7557851	645.802361964	0.734617733
31	7559549	645.937073047	0.134711083
31	7562460	646.085705391	0.148632344
31	7579834	647.36073958	1.275034189
31	7580980	647.46795884	0.10721926
31	7586614	647.730967641	0.263008801
31	7593398	648.228249708	0.497282067
31	7602106	649.117365204	0.889115496
31	7608987	649.651222647	0.533857443
31	7609456	649.681336303	0.030113656
31	7615449	650.14992425	0.468587947
31	7633170	651.482812691	1.332888441
31	7637133	651.953669409	0.470856718
31	7645338	652.748177652	0.794508243
31	7652050	653.530718956	0.782541304
31	7653854	653.751978507	0.221259551
31	7663758	654.779091455	1.027112948
31	7667834	655.101029298	0.321937843
31	7670819	655.325506488	0.22447719
31	7677183	655.953091646	0.627585158
31	7685460	656.523836269	0.570744623
31	7710283	658.900245383	2.376409114
31	7720670	659.713048243	0.81280286
31	7720719	659.719317319	0.006269076
31	7722442	659.881894843	0.162577524
31	7726297	660.221998079	0.340103236
31	7742482	661.864238158	1.642240079
31	7749401	662.664592582	0.800354424
31	7750084	662.751370677	0.086778095
31	7751567	662.919848302	0.168477625
31	7764282	664.053535131	1.133686829
31	7766903	664.389696379	0.336161248
31	7788317	666.490704318	2.101007939
31	7789775	666.597138449	0.106434131
31	7793625	666.876044711	0.278906262
31	7796943	667.122196413	0.246151702
31	7813759	668.356191171	1.233994758
31	7832266	669.89783522	1.541644049
31	7856605	671.96768258	2.06984736
31	7863717	672.478757851	0.511075271
31	7895322	674.816032945	2.337275094
31	7918398	676.586373272	1.770340327
31	7923680	677.13036517	0.543991898
31	7942985	679.030910154	1.900544984
31	7943292	679.055195114	0.02428496
31	7998608	683.018561492	3.963366378
31	8038803	685.92872721	2.910165718
31	8051756	686.928068809	0.999341599
31	8059455	687.612449444	0.684380635
31	8095106	690.130626735	2.518177291
31	8112478	691.380970293	1.250343558
31	8159834	695.190684126	3.809713833
31	8203711	698.12032634	2.929642214
31	8213679	698.921292253	0.800965913
31	8252351	702.234768828	3.313476575
31	8263229	703.055065626	0.820296798
31	8283651	704.928473734	1.873408108
31	8287722	705.326609979	0.398136245
31	8291114	705.559086675	0.232476696
31	8317258	707.987345908	2.428259233
31	8317721	708.013874752	0.026528844
31	8318045	708.028223788	0.014349036
31	8335913	709.75117823	1.722954442
31	8347851	711.068119829	1.316941599
31	8367293	712.663155478	1.595035649
31	8386912	714.244644415	1.581488937
31	8394919	714.889963479	0.645319064
31	8415580	716.799339498	1.909376019
31	8423801	717.319027559	0.519688061
31	8439818	718.843862235	1.524834676
31	8444845	719.390965538	0.547103303
31	8449374	719.905551633	0.514586095
31	8450126	719.970214037	0.064662404
31	8451682	720.091835215	0.121621178
31	8459341	720.814085388	0.722250173
31	8467176	721.566396758	0.75231137
31	8478709	722.501979819	0.935583061
31	8481950	722.740744266	0.238764447
31	8502153	724.31732555	1.576581284
31	8503721	724.441291925	0.123966375
31	8524254	725.941078406	1.499786481
31	8524649	725.980988845	0.039910439
31	8533918	726.60773265	0.626743805
31	8540263	727.0574363	0.44970365
31	8542225	727.359658885	0.302222585
31	8554771	728.326864453	0.967205568
31	8568696	729.36352635	1.036661897
31	8569732	729.425804499	0.062278149
31	8598529	731.603271782	2.177467283
31	8605756	732.118709362	0.51543758
31	8639902	734.595627521	2.476918159
31	8655242	735.888907111	1.29327959
31	8692605	738.407060593	2.518153482
31	8705902	739.482758649	1.075698056
31	8740356	741.968361543	2.485602894
31	8743530	742.219140733	0.25077919
31	8748551	742.5177399	0.298599167
31	8792633	745.914866238	3.397126338
31	8794419	746.047971514	0.133105276
31	8800023	746.433631815	0.385660301
31	8802703	746.585164466	0.151532651
31	8806695	746.759570833	0.174406367
31	8809466	746.903985579	0.144414746
31	8812820	747.133187971	0.229202392
31	8819844	747.645039367	0.511851396
31	8834600	748.756213493	1.111174126
31	8835571	748.819636083	0.06342259
31	8848182	749.660023807	0.840387724
31	8850801	749.846246273	0.186222466
31	8875809	751.425384587	1.579138314
31	8878729	751.655727249	0.230342662
31	8881069	751.860276004	0.204548755
31	8887060	752.285812358	0.425536354
31	8887391	752.304692986	0.018880628
31	8891804	752.670018923	0.365325937
31	8896084	752.959514053	0.28949513
31	8902791	753.398022437	0.438508384
31	8909639	754.045071624	0.647049187
31	8911898	754.228523378	0.183451754
31	8917529	754.645585177	0.417061799
31	8919779	754.837502429	0.191917252
31	8946061	756.935367129	2.0978647
31	8947740	757.069039428	0.133672299
31	8952050	757.409012202	0.339972774
31	8952237	757.428565055	0.019552853
31	8953114	757.500050743	0.071485688
31	8964347	758.36069345	0.860642707
31	8970143	758.97803515	0.6173417
31	8978847	759.662609163	0.684574013
31	8989954	760.561481808	0.898872645
31	9015498	762.907751769	2.346269961
31	9017547	763.035682071	0.127930302
31	9028419	763.949495884	0.913813813
31	9069222	768.019156834	4.06966095
31	9078500	768.676936994	0.65778016
31	9083423	768.969567384	0.29263039
31	9083898	768.994794683	0.025227299
31	9084860	769.071981581	0.077186898
31	9098418	770.202988319	1.131006738
31	9133902	772.942943072	2.739954753
31	9141654	773.536654367	0.593711295
31	9228263	779.840074248	6.303419881
31	9259305	782.387434752	2.547360504
31	9272648	783.487320748	1.099885996
31	9293568	785.40152995	1.914209202
31	9296213	785.703021849	0.301491899
31	9298390	785.923415297	0.220393448
31	9307283	786.76916047	0.845745173
31	9328945	788.570294941	1.801134471
31	9366446	792.235673909	3.665378968
31	9391361	794.056261599	1.82058769
31	9412860	795.547591334	1.491329735
31	9427427	796.504753794	0.95716246
31	9453832	798.481372758	1.976618964
31	9467484	799.560978649	1.079605891
31	9475215	800.175901574	0.614922925
31	9490397	801.116181217	0.940279643
31	9503818	802.075837654	0.959656437
31	9504666	802.14267551	0.066837856
31	9507455	802.345702517	0.203027007
31	9511883	802.620473566	0.274771049
31	9518350	803.129285154	0.508811588
31	9526811	803.787145447	0.657860293
31	9537775	804.679679513	0.892534066
31	9543876	805.329460059	0.649780546
31	9557757	806.579850455	1.250390396
31	9558043	806.618771186	0.038920731
31	9562119	807.256527103	0.637755917
31	9562462	807.300421924	0.043894821
31	9563725	807.455969135	0.155547211
31	9574995	808.564887982	1.108918847
31	9591481	809.771443385	1.206555403
31	9613884	811.629397737	1.857954352
31	9625588	812.429823577	0.80042584
31	9635809	813.165477657	0.73565408
31	9648587	814.095517338	0.930039681
31	9654967	814.480034429	0.384517091
31	9660513	814.944669549	0.46463512
31	9702336	818.156411881	3.211742332
31	9728316	820.122231425	1.965819544
31	9741909	821.39858324	1.276351815
31	9742247	821.432364646	0.033781406
31	9743959	821.577638848	0.145274202
31	9754736	822.379449747	0.801810899
31	9761503	823.111187972	0.731738225
31	9781261	824.801940236	1.690752264
31	9809933	827.189983597	2.388043361
31	9827674	828.463384536	1.273400939
31	9833035	828.900208495	0.436823959
31	9836382	829.189615921	0.289407426
31	9850331	829.992094418	0.802478497
31	9855646	830.272029268	0.27993485
31	9864136	830.960124265	0.688094997
31	9903723	833.598399585	2.63827532
31	9905607	833.703858693	0.105459108
31	9910393	833.970381083	0.26652239
31	9918291	834.647484106	0.677103023
31	9920063	834.808450662	0.160966556
31	9954629	837.225364027	2.416913365
31	9957520	837.41067909	0.185315063
31	9974339	838.635161688	1.224482598
31	9977432	838.88771282	0.252551132
31	9981013	839.136116157	0.248403337