version 2
run KademliaDHT-9-20211202-22:23:51-9356
attr Lifetime 1000s
attr configname KademliaDHT
attr datetime 20211202-22:23:51
attr experiment KademliaDHT
attr inifile configs.ini
attr iterationvars $Lifetime=1000s
attr iterationvars2 "$Lifetime=1000s, $repetition=0"
attr measurement $Lifetime=1000s
attr network oversim.underlay.simpleunderlay.SimpleUnderlayNetwork
attr processid 9356
attr repetition 0
attr replication #0
attr resultdir results
attr runnumber 9
attr seedset 9

vector 64  SimpleUnderlayNetwork.globalObserver.globalStatistics  "GlobalNodeList: Number of nodes"  ETV
vector 65  SimpleUnderlayNetwork.globalObserver.globalStatistics  "GlobalDhtTestMap: Number of stored DHT entries"  ETV
vector 66  SimpleUnderlayNetwork.globalObserver.globalStatistics  "Kademlia: Buckets Refreshed Per Task"  ETV
vector 67  SimpleUnderlayNetwork.globalObserver.globalStatistics  "LifetimeChurn: Session Time"  ETV
vector 68  SimpleUnderlayNetwork.globalObserver.globalStatistics  "LifetimeChurn: Time between creates"  ETV
vector 69  SimpleUnderlayNetwork.globalObserver.globalStatistics  "LifetimeChurn: Time between deletes"  ETV
64	1359421	150	511
64	2021667	200	521
64	2683156	250	512
64	3339431	300	509
64	3963008	350	505
64	4588268	400	501
64	5193514	450	506
64	5779562	500	490
64	6354800	550	483
64	6924189	600	488
64	7501266	650	490
64	8061757	700	495
64	8654526	750	507
64	9228029	800	510
64	9820246	850	512
64	10410931	900	504
64	10997520	950	508
64	11613205	1000	524
64	12259435	1050	524
64	12912645	1100	517
65	1359422	150	765
65	1488226	160	859
65	1608642	170	935
65	1744882	180	997
65	1884287	190	1059
65	2021668	200	1156
65	2159208	210	1252
65	2281207	220	1343
65	2407969	230	1422
65	2552315	240	1487
65	2683157	250	1556
65	2823809	260	1652
65	2956585	270	1742
65	3080891	280	1833
65	3204368	290	1905
65	3339432	300	1971
65	3472139	310	2052
65	3609594	320	2143
65	3714209	330	2225
65	3838491	340	2310
65	3963009	350	2391
65	4086213	360	2445
65	4219246	370	2448
65	4354697	380	2441
65	4463623	390	2439
65	4588269	400	2424
65	4704572	410	2421
65	4830632	420	2432
65	4955493	430	2452
65	5081004	440	2438
65	5193515	450	2421
65	5314124	460	2411
65	5445782	470	2413
65	5554774	480	2417
65	5675526	490	2434
65	5779563	500	2421
65	5891530	510	2415
65	6006543	520	2401
65	6120636	530	2388
65	6242375	540	2404
65	6354801	550	2410
65	6468714	560	2389
65	6576982	570	2385
65	6696000	580	2374
65	6803978	590	2376
65	6924190	600	2388
65	7045248	610	2381
65	7165288	620	2373
65	7263367	630	2367
65	7383255	640	2368
65	7501267	650	2366
65	7621053	660	2369
65	7732192	670	2383
65	7845712	680	2362
65	7955257	690	2359
65	8061758	700	2362
65	8174443	710	2354
65	8283941	720	2362
65	8405257	730	2374
65	8523077	740	2361
65	8654527	750	2357
65	8773293	760	2351
65	8878049	770	2353
65	8989770	780	2366
65	9114747	790	2367
65	9228030	800	2368
65	9340504	810	2361
65	9455888	820	2362
65	9578976	830	2361
65	9700227	840	2379
65	9820247	850	2390
65	9939948	860	2388
65	10053721	870	2400
65	10162271	880	2397
65	10290062	890	2401
65	10410932	900	2411
65	10519263	910	2410
65	10651438	920	2422
65	10759010	930	2429
65	10871478	940	2415
65	10997521	950	2415
65	11123494	960	2429
65	11248127	970	2429
65	11377096	980	2437
65	11500556	990	2433
65	11613206	1000	2439
65	11737498	1010	2434
65	11866906	1020	2453
65	11986469	1030	2450
65	12134513	1040	2466
65	12259436	1050	2469
65	12377663	1060	2481
65	12504093	1070	2463
65	12638320	1080	2475
65	12766602	1090	2477
65	12912646	1100	2482
65	13042356	1110	2487
65	13166607	1120	2488
65	13304947	1130	2498
65	13385342	1140	2464
66	1360529	150.05549294	0
66	1362882	150.169246824	0
66	1363056	150.177906768	0
66	1367412	150.405410558	0
66	1368987	150.504111641	0
66	1372599	150.77296708	0
66	1374574	150.986633274	1
66	1377460	151.226995872	0
66	1377756	151.246022823	0
66	1378375	151.288961956	0
66	1378680	151.311933941	0
66	1393373	152.477425274	2
66	1412370	154.035614012	0
66	1433354	155.5814013	0
66	1433684	155.603471872	4
66	1451225	157.023344141	3
66	1471872	158.534973105	0
66	1472588	158.607636072	0
66	1474954	158.807538045	0
66	1477082	158.962358764	6
66	1486064	159.746498086	1
66	1489980	160.175651884	1
66	1502957	161.299879585	1
66	1503641	161.35576995	0
66	1507247	161.633401979	3
66	1534642	164.251691092	0
66	1551653	165.733697725	0
66	1563697	166.539026384	1
66	1565450	166.648847734	2
66	1581244	167.482377633	0
66	1581772	167.508960942	0
66	1588510	167.987281577	0
66	1597616	168.703700143	0
66	1617278	170.567337343	1
66	1622550	170.777446691	1
66	1655973	173.106326612	0
66	1664666	173.73111906	3
66	1673333	174.187056778	2
66	1685147	175.310292738	4
66	1685959	175.386515508	4
66	1700492	176.406875866	0
66	1724173	178.324252292	0
66	1735392	179.26789846	1
66	1735858	179.320532053	1
66	1790200	183.81793824	0
66	1791931	183.929958814	0
66	1794356	184.108152814	5
66	1808768	184.983869621	1
66	1853777	188.415382332	2
66	1855520	188.513775301	2
66	1855827	188.529507422	3
66	1862307	188.876145882	0
66	1862564	188.891288855	2
66	1870075	189.246558148	0
66	1880283	189.838025674	0
66	1896132	190.769181268	5
66	1899457	191.027504503	0
66	1912039	191.828272339	0
66	1912551	191.855899043	4
66	1923156	192.475865119	1
66	1926504	192.687001924	0
66	1957143	194.346815756	0
66	1966457	195.064488251	0
66	1967286	195.11511196	1
66	1970742	195.312701748	0
66	1984114	196.097327878	1
66	1985646	196.179129147	0
66	1992344	196.643022941	0
66	2003228	197.695347857	2
66	2010480	198.555753892	1
66	2016177	199.384126727	2
66	2026243	200.375949099	0
66	2027050	200.431701685	0
66	2033772	200.977985729	0
66	2034076	201.003234473	0
66	2043264	201.641622633	0
66	2052254	202.090335595	0
66	2058103	202.449341411	0
66	2058833	202.50994815	1
66	2060655	202.683490443	0
66	2061427	202.780525947	0
66	2063277	203.040364842	0
66	2063517	203.067444253	0
66	2064724	203.189835676	0
66	2064833	203.204315913	0
66	2065230	203.238361476	0
66	2065358	203.258298181	0
66	2066058	203.330523383	0
66	2067580	203.475648001	0
66	2067635	203.479821706	0
66	2068946	203.562050466	0
66	2069710	203.609937635	0
66	2069820	203.617610317	0
66	2074355	203.923525873	0
66	2075438	203.997345957	0
66	2076648	204.08051628	0
66	2078405	204.201050363	0
66	2080573	204.324263355	0
66	2081628	204.38393446	0
66	2083624	204.500435575	2
66	2084192	204.536088528	0
66	2084634	204.564134995	0
66	2086438	204.693672648	0
66	2087713	204.789183682	0
66	2089647	204.907570228	0
66	2090409	204.950317854	0
66	2090664	204.964401573	0
66	2097550	205.318211945	1
66	2098407	205.361162303	0
66	2101498	205.527325254	0
66	2101980	205.557807043	0
66	2102196	205.571725375	1
66	2104099	205.696446473	0
66	2104484	205.724838243	0
66	2106450	205.86301894	0
66	2107147	205.918777171	0
66	2107196	205.923214208	0
66	2108126	205.988380876	0
66	2109501	206.077802344	0
66	2110270	206.117654123	0
66	2113705	206.293304828	0
66	2115858	206.408924441	2
66	2116159	206.421556402	0
66	2117039	206.465423457	0
66	2118374	206.539199836	0
66	2121185	206.719301446	0
66	2122527	206.803783097	0
66	2128297	207.217877659	0
66	2128802	207.279368469	0
66	2129399	207.351035797	1
66	2130837	207.501616343	0
66	2131530	207.578810599	0
66	2132149	207.651350393	0
66	2132388	207.679882321	0
66	2135927	207.979373293	0
66	2136846	208.063928612	0
66	2138078	208.196393782	0
66	2138576	208.259059498	0
66	2139897	208.442095665	1
66	2140174	208.470970534	0
66	2142741	208.713700258	0
66	2144466	208.874733981	0
66	2144804	208.903497448	0
66	2145132	208.937219714	0
66	2145940	209.013524562	0
66	2147410	209.152258771	0
66	2148339	209.230770859	0
66	2149879	209.370667302	0
66	2152445	209.576271454	0
66	2153682	209.669900716	0
66	2154309	209.707297899	0
66	2155096	209.756092799	0
66	2155466	209.77731728	0
66	2157569	209.901948485	0
66	2161572	210.164063487	0
66	2161988	210.200092875	0
66	2162837	210.282892009	0
66	2165681	210.632054741	0
66	2166678	210.778241349	0
66	2167335	210.848693561	0
66	2167371	210.854024853	0
66	2169786	211.042810872	0
66	2169960	211.052935859	0
66	2171621	211.176769035	0
66	2171795	211.190543669	0
66	2172608	211.247423806	0
66	2173621	211.327213884	0
66	2174252	211.377074164	0
66	2175892	211.489614687	0
66	2177237	211.586095608	2
66	2182920	211.990828296	0
66	2185256	212.129550046	2
66	2186862	212.235050957	0
66	2187677	212.283153137	0
66	2187924	212.300703039	0
66	2188415	212.335822325	0
66	2189644	212.413486097	0
66	2190126	212.446505017	0
66	2190503	212.471050618	0
66	2190901	212.495423395	0
66	2192812	212.620785826	0
66	2194450	212.732262761	0
66	2194557	212.74209531	0
66	2199192	213.090381557	0
66	2203213	213.376530721	0
66	2205718	213.550867435	0
66	2205887	213.563955707	0
66	2209033	213.795128954	0
66	2209501	213.827418039	0
66	2210752	213.90192477	0
66	2211655	213.957236033	0
66	2212557	214.009285873	0
66	2213911	214.088445467	3
66	2215532	214.176192772	0
66	2216768	214.23915909	0
66	2221355	214.495818871	1
66	2222673	214.589600804	0
66	2223013	214.61099155	1
66	2226023	214.928074048	0
66	2226999	215.074583168	0
66	2227119	215.095608463	0
66	2227193	215.112264569	0
66	2229999	215.560821759	0
66	2230334	215.599337756	0
66	2230986	215.663820976	0
66	2231049	215.670503245	0
66	2232439	215.802004317	0
66	2234150	215.962024115	0
66	2234784	216.028672327	0
66	2236064	216.165229006	0
66	2236141	216.178970709	0
66	2236691	216.247205143	0
66	2236847	216.262505033	0
66	2238843	216.473879507	0
66	2239142	216.49912477	0
66	2240916	216.634174259	0
66	2241567	216.679500893	0
66	2242132	216.721781524	0
66	2242890	216.777033446	0
66	2245166	216.931446903	0
66	2245817	216.974890569	0
66	2247902	217.119716219	0
66	2251703	217.423336419	0
66	2253460	217.544836974	0
66	2254383	217.606232554	0
66	2255956	217.721856261	0
66	2257447	217.848130881	0
66	2257691	217.870043145	0
66	2257871	217.890789574	0
66	2258985	218.014873645	0
66	2259146	218.036190014	0
66	2261127	218.219290159	0
66	2263541	218.468803379	0
66	2267652	218.79173296	0
66	2270365	219.029158153	0
66	2270659	219.054518267	1
66	2271636	219.144695622	0
66	2272543	219.246987191	0
66	2274221	219.460080023	1
66	2275762	219.610707175	3
66	2276533	219.670613422	0
66	2276623	219.679195578	0
66	2276966	219.705101259	0
66	2277075	219.710258156	1
66	2279824	219.90444174	0
66	2282029	220.058090364	2
66	2282229	220.078265985	0
66	2282886	220.127328708	0
66	2284067	220.229646194	0
66	2284550	220.273876367	0
66	2289450	220.650209222	0
66	2291464	220.791585062	0
66	2292398	220.863904976	0
66	2293884	220.979106478	0
66	2295059	221.070172985	0
66	2295079	221.071609277	0
66	2295341	221.093707624	0
66	2296399	221.178376703	0
66	2299423	221.390915863	0
66	2304501	221.708682263	0
66	2305851	221.794668669	0
66	2306861	221.853855202	0
66	2307175	221.870287044	0
66	2308912	221.969358449	0
66	2309105	221.986951689	1
66	2309640	222.022508378	0
66	2311218	222.152531848	0
66	2312853	222.33241785	0
66	2313848	222.461342224	0
66	2314391	222.510642274	0
66	2314629	222.531246112	0
66	2315077	222.5703756	0
66	2317562	222.755321567	0
66	2318109	222.794853567	4
66	2318345	222.808818573	2
66	2323238	223.104898735	0
66	2325294	223.226369109	0
66	2326804	223.320382094	0
66	2328436	223.420797043	0
66	2328808	223.446496088	0
66	2334684	223.82051476	0
66	2334769	223.828059882	0
66	2334944	223.840395007	0
66	2335049	223.848063331	0
66	2335700	223.904630199	1
66	2336418	223.976154975	0
66	2336897	224.024116667	0
66	2337095	224.042598935	0
66	2337238	224.05949043	0
66	2337691	224.102692251	0
66	2338035	224.149107284	0
66	2339053	224.269554781	4
66	2340146	224.394423804	0
66	2342966	224.686176515	0
66	2343771	224.752310555	0
66	2347300	225.033814917	0
66	2347814	225.081225377	2
66	2349159	225.203753008	0
66	2350195	225.30373963	0
66	2351570	225.45565855	0
66	2351988	225.504986347	0
66	2352168	225.522755333	0
66	2353717	225.702393217	0
66	2354472	225.786020162	0
66	2354823	225.82549821	0
66	2355338	225.892083846	0
66	2355502	225.909782931	1
66	2355576	225.919219879	0
66	2356269	225.986346906	0
66	2360786	226.33501182	0
66	2362298	226.437810407	0
66	2362858	226.469555902	0
66	2363934	226.530702211	0
66	2364144	226.541918901	0
66	2364235	226.544996442	0
66	2364908	226.584195583	0
66	2369833	226.897493363	0
66	2375726	227.441223103	0
66	2376542	227.521133666	0
66	2376840	227.547056554	0
66	2376957	227.560171776	0
66	2379320	227.730390693	0
66	2379484	227.741047476	0
66	2381664	227.890512183	0
66	2382067	227.921903051	0
66	2385232	228.12342369	0
66	2385889	228.163388973	0
66	2386023	228.169751139	0
66	2389801	228.442982804	0
66	2390241	228.472598068	0
66	2392060	228.635665989	0
66	2392728	228.696796474	0
66	2394191	228.848729869	0
66	2394204	228.849462368	0
66	2395737	229.02590672	0
66	2395765	229.029020276	0
66	2397284	229.195690407	0
66	2397452	229.21176571	1
66	2398469	229.297378712	0
66	2400227	229.43786587	1
66	2400324	229.443588775	0
66	2400843	229.494283255	0
66	2401636	229.564525102	2
66	2401821	229.57744627	0
66	2403823	229.719602917	0
66	2404276	229.746863588	0
66	2404603	229.772349709	0
66	2404977	229.79128421	0
66	2406544	229.90248583	0
66	2411221	230.200281844	0
66	2411549	230.224811807	0
66	2412587	230.307177649	0
66	2413311	230.375475626	0
66	2414122	230.445847186	0
66	2415402	230.572224805	0
66	2415445	230.576324528	0
66	2417948	230.803021467	0
66	2418595	230.862501741	0
66	2420824	231.057368444	0
66	2422454	231.211158517	0
66	2426694	231.5622022	0
66	2427676	231.641898843	0
66	2427907	231.657027545	0
66	2433295	232.024169729	0
66	2435892	232.21852836	0
66	2438266	232.390299417	0
66	2439997	232.508838619	0
66	2440078	232.51355768	0
66	2442441	232.680529864	0
66	2442633	232.696153825	0
66	2443697	232.772427212	2
66	2444790	232.862455016	0
66	2445042	232.883774542	0
66	2445859	232.956897011	1
66	2446838	233.030071783	0
66	2449552	233.216299408	0
66	2449602	233.219470995	0
66	2451277	233.33654455	0
66	2451491	233.355315347	0
66	2451745	233.372198481	0
66	2452852	233.447011529	0
66	2455065	233.60208792	1
66	2455201	233.60982755	0
66	2457427	233.753314106	0
66	2458772	233.823599622	0
66	2460225	233.894971189	0
66	2466687	234.219533884	0
66	2470220	234.436811182	0
66	2470807	234.474125456	0
66	2472654	234.590666882	1
66	2473750	234.659462393	0
66	2473769	234.660022971	0
66	2474206	234.688782995	0
66	2474690	234.715080551	0
66	2476357	234.818325881	0
66	2477714	234.911090768	0
66	2481098	235.1737875	0
66	2481158	235.176993134	0
66	2483648	235.371907631	2
66	2484525	235.43976712	0
66	2485283	235.510054227	0
66	2485942	235.563810351	0
66	2486709	235.632583119	0
66	2487897	235.73869363	4
66	2490750	235.978151501	0
66	2491549	236.049257241	0
66	2492281	236.105399024	2
66	2493237	236.16279831	0
66	2494723	236.252784281	0
66	2496289	236.335793291	0
66	2498090	236.439797419	1
66	2499645	236.527996623	0
66	2499692	236.531450917	0
66	2500972	236.615215312	0
66	2503511	236.793310069	0
66	2505127	236.915561537	0
66	2505618	236.943670905	0
66	2507451	237.073167186	0
66	2508957	237.177211505	0
66	2510866	237.324878241	0
66	2514613	237.571664838	0
66	2514997	237.593796388	0
66	2517099	237.72825452	0
66	2518769	237.843514832	0
66	2520117	237.949431757	0
66	2520917	238.008423548	0
66	2521016	238.01541657	0
66	2523586	238.18830736	0
66	2525203	238.290299447	2
66	2526511	238.364913501	0
66	2526563	238.368197039	0
66	2528044	238.450098919	1
66	2528624	238.487308671	0
66	2535255	238.869448246	0
66	2535363	238.87615817	0
66	2535408	238.877706079	0
66	2537938	239.038858534	3
66	2541094	239.275491302	0
66	2543180	239.430057211	0
66	2544590	239.522474776	0
66	2545075	239.553747398	0
66	2548436	239.767942456	0
66	2554402	240.131947062	2
66	2556660	240.278531783	0
66	2560009	240.596568386	0
66	2560081	240.604496539	0
66	2560261	240.620360497	0
66	2561224	240.724120632	0
66	2561301	240.734152996	0
66	2561891	240.809422131	0
66	2563046	240.949075982	0
66	2564287	241.094183486	0
66	2565049	241.171143481	0
66	2567999	241.466862243	0
66	2568543	241.526951407	0
66	2568994	241.568187514	0
66	2569042	241.572235307	0
66	2570089	241.676999844	0
66	2571478	241.798136414	0
66	2571573	241.806793105	0
66	2572235	241.86168448	5
66	2576966	242.208417001	0
66	2576995	242.211309914	0
66	2577932	242.278030432	0
66	2578681	242.330020888	0
66	2581784	242.538379482	0
66	2585622	242.868445398	0
66	2589163	243.127910973	0
66	2593660	243.389223219	0
66	2595732	243.495036036	0
66	2597698	243.611483675	2
66	2598293	243.643120186	0
66	2599434	243.71267013	0
66	2600102	243.755966079	0
66	2600753	243.802910207	0
66	2603536	244.042519138	0
66	2603681	244.058074451	2
66	2605098	244.175165213	0
66	2605715	244.223384245	0
66	2606292	244.257334703	1
66	2606512	244.270288626	0
66	2607279	244.329520704	0
66	2609553	244.508988747	0
66	2609570	244.511227868	0
66	2610273	244.571877165	0
66	2613890	244.875425317	0
66	2614296	244.90454067	0
66	2615811	245.047712767	0
66	2618476	245.316562314	0
66	2618974	245.367823343	0
66	2619025	245.374430601	0
66	2619577	245.42978928	0
66	2620753	245.538138711	2
66	2627999	246.006029489	0
66	2628948	246.058230809	0
66	2629470	246.091367378	0
66	2631842	246.261274515	0
66	2637995	246.672001648	0
66	2640528	246.836287828	0
66	2640652	246.845424406	0
66	2642469	246.958991503	0
66	2643533	247.039603678	0
66	2643569	247.042732958	0
66	2644048	247.08379741	0
66	2646194	247.272571114	0
66	2646659	247.313742948	5
66	2646951	247.329731703	2
66	2647320	247.351466227	0
66	2647495	247.36033559	0
66	2649167	247.457636062	0
66	2651584	247.601911157	1
66	2651703	247.608563415	0
66	2653179	247.699517102	0
66	2655090	247.815095057	0
66	2657323	247.952995025	0
66	2659228	248.101079402	0
66	2659246	248.103208735	0
66	2660568	248.217559629	0
66	2660613	248.221717362	0
66	2660855	248.243499564	0
66	2662266	248.377551869	0
66	2663134	248.465171871	0
66	2664668	248.615063988	0
66	2665586	248.700850209	0
66	2665598	248.702017697	0
66	2669126	248.978046122	0
66	2678680	249.619265702	0
66	2679519	249.69576965	0
66	2682294	249.936935272	0
66	2682719	249.965738962	0
66	2682929	249.981091772	0
66	2683932	250.05549294	0
66	2685572	250.169246824	0
66	2685683	250.177906768	0
66	2689104	250.405410558	0
66	2690584	250.504111641	0
66	2694219	250.77296708	0
66	2697687	250.986633274	0
66	2701139	251.226995872	2
66	2701352	251.246022823	0
66	2701886	251.288961956	0
66	2702177	251.311933941	0
66	2716258	252.477425274	0
66	2739276	254.035614012	0
66	2742462	254.351265302	0
66	2748268	254.855903201	2
66	2756804	255.5814013	0
66	2757223	255.603471872	0
66	2763902	256.01254107	2
66	2772525	256.638047867	0
66	2778722	257.023344141	0
66	2794416	258.294260429	0
66	2797123	258.457969548	1
66	2798250	258.534973105	0
66	2799543	258.607636072	0
66	2804150	258.807538045	0
66	2808180	258.962358764	0
66	2820766	259.746498086	0
66	2829760	260.498870979	0
66	2843000	261.299879585	0
66	2843989	261.35576995	0
66	2848187	261.633401979	0
66	2869080	263.42967038	0
66	2874399	263.946698397	2
66	2878808	264.251691092	0
66	2886386	264.766348211	1
66	2889713	264.978524786	5
66	2890918	265.038597581	2
66	2897590	265.368544347	3
66	2913751	266.539026384	0
66	2915106	266.648847734	0
66	2926037	267.479934596	2
66	2926412	267.508960942	0
66	2932560	267.987281577	0
66	2939987	268.703700143	0
66	2963404	270.567337343	1
66	2965029	270.777446691	0
66	2993585	273.106326612	0
66	3001037	273.73111906	0
66	3006173	274.187056778	0
66	3021819	275.310292738	0
66	3022671	275.386515508	0
66	3037691	276.406875866	0
66	3071702	279.055693926	2
66	3074583	279.26789846	0
66	3075226	279.320532053	0
66	3085548	280.43794804	2
66	3108591	281.892022776	1
66	3133757	283.81793824	1
66	3136834	284.108152814	0
66	3145301	284.983869621	0
66	3148689	285.273492712	0
66	3174072	287.148145995	1
66	3188062	288.415382332	0
66	3189074	288.513775301	0
66	3189254	288.529507422	0
66	3192086	288.876145882	0
66	3192208	288.891288855	0
66	3195044	289.246558148	0
66	3201435	289.838025674	0
66	3214189	290.769181268	0
66	3216689	291.027504503	0
66	3225899	291.828272339	0
66	3235895	292.475865119	0
66	3238654	292.687001924	0
66	3242870	292.963661723	4
66	3255476	294.042236336	2
66	3259236	294.346815756	1
66	3268310	295.064488251	0
66	3268880	295.11511196	0
66	3271094	295.312701748	0
66	3281251	296.06759207	5
66	3281894	296.097327878	0
66	3282034	296.102932039	5
66	3283624	296.179129147	0
66	3292073	296.643022941	0
66	3305639	297.514054895	0
66	3308690	297.695347857	0
66	3320552	298.555753892	0
66	3325713	298.928542778	4
66	3336115	299.700886381	0
66	3344806	300.431701685	0
66	3351725	300.977985729	0
66	3352012	301.003234473	2
66	3359254	301.641622633	0
66	3364660	302.090335595	0
66	3370410	302.449341411	4
66	3371393	302.50994815	0
66	3374302	302.683490443	0
66	3378951	303.040364842	0
66	3381037	303.189835676	0
66	3381295	303.204315913	0
66	3381725	303.238361476	0
66	3382004	303.258298181	0
66	3382952	303.330523383	0
66	3384693	303.475648001	0
66	3384744	303.479821706	0
66	3385671	303.562050466	0
66	3386271	303.609937635	0
66	3389663	303.923525873	0
66	3390493	303.997345957	0
66	3391385	304.08051628	0
66	3393213	304.201050363	0
66	3395245	304.324263355	0
66	3396369	304.38393446	0
66	3398866	304.500435575	0
66	3399670	304.536088528	0
66	3400321	304.564134995	0
66	3402869	304.693672648	0
66	3406128	304.907570228	0
66	3406642	304.950317854	0
66	3406871	304.964401573	0
66	3411177	305.318211945	0
66	3411618	305.361162303	0
66	3413652	305.527325254	0
66	3414007	305.557807043	0
66	3414050	305.560086984	1
66	3414202	305.571725375	0
66	3415756	305.696446473	1
66	3416086	305.724838243	0
66	3417812	305.86301894	1
66	3418508	305.918777171	0
66	3418594	305.923214208	0
66	3419464	305.988380876	0
66	3423096	306.293304828	0
66	3423821	306.348847154	5
66	3424600	306.408924441	0
66	3424781	306.421556402	0
66	3425383	306.465423457	0
66	3427882	306.719301446	0
66	3428644	306.803783097	0
66	3433797	307.217877659	0
66	3434746	307.279368469	0
66	3435808	307.351035797	0
66	3438183	307.501616343	0
66	3440644	307.651350393	0
66	3441091	307.679882321	0
66	3446025	307.979373293	0
66	3447094	308.063928612	0
66	3448706	308.196393782	0
66	3449572	308.259059498	0
66	3452503	308.442095665	0
66	3452935	308.470970534	0
66	3453493	308.504880766	2
66	3456567	308.713700258	0
66	3458610	308.874733981	0
66	3458961	308.903497448	0
66	3459345	308.937219714	0
66	3460200	309.013524562	0
66	3462328	309.230770859	0
66	3466818	309.576271454	0
66	3468142	309.669900716	0
66	3468652	309.707297899	0
66	3469273	309.756092799	0
66	3469463	309.77731728	0
66	3470815	309.901948485	0
66	3476286	310.282892009	0
66	3481159	310.632054741	0
66	3483711	310.778241349	0
66	3485013	310.848693561	0
66	3485101	310.854024853	0
66	3488492	311.042810872	0
66	3488678	311.052935859	0
66	3490685	311.176769035	0
66	3490844	311.190543669	0
66	3492784	311.327213884	0
66	3493467	311.377074164	4
66	3495164	311.489614687	0
66	3496289	311.586095608	0
66	3496779	311.626885684	1
66	3496887	311.632236724	4
66	3501228	311.990828296	1
66	3502632	312.129550046	0
66	3503827	312.235050957	0
66	3504510	312.283153137	0
66	3504755	312.300703039	0
66	3505307	312.335822325	0
66	3505927	312.375816322	6
66	3506584	312.413486097	0
66	3507141	312.446505017	0
66	3507623	312.471050618	0
66	3508023	312.495423395	0
66	3509831	312.620785826	3
66	3511502	312.732262761	0
66	3511647	312.74209531	0
66	3515521	313.090381557	0
66	3519441	313.376530721	0
66	3521872	313.550867435	0
66	3522058	313.563955707	0
66	3525844	313.795128954	0
66	3526329	313.827418039	0
66	3527468	313.90192477	0
66	3528407	313.957236033	0
66	3530519	314.088445467	0
66	3531861	314.176192772	0
66	3532896	314.23915909	2
66	3537430	314.589600804	0
66	3537710	314.61099155	0
66	3541653	314.928074048	0
66	3543661	315.074583168	0
66	3543961	315.095608463	0
66	3544178	315.112264569	0
66	3550032	315.560821759	1
66	3551564	315.670503245	0
66	3553696	315.802004317	0
66	3556112	315.962024115	0
66	3557180	316.028672327	0
66	3559083	316.165229006	0
66	3559274	316.178970709	0
66	3560029	316.247205143	0
66	3560228	316.262505033	0
66	3563164	316.473879507	0
66	3563598	316.49912477	0
66	3565508	316.634174259	0
66	3566104	316.679500893	0
66	3566732	316.721781524	0
66	3567417	316.777033446	0
66	3569033	316.931446903	0
66	3569470	316.974890569	0
66	3569493	316.977432775	0
66	3570840	317.119716219	0
66	3573272	317.334032633	0
66	3574342	317.423336419	0
66	3575730	317.544836974	0
66	3576301	317.606232554	0
66	3577426	317.721856261	0
66	3578447	317.848130881	0
66	3578635	317.870043145	0
66	3578806	317.890789574	0
66	3579904	318.014873645	0
66	3580094	318.036190014	0
66	3582311	318.219290159	0
66	3582370	318.222259277	2
66	3585618	318.468803379	0
66	3590084	318.79173296	0
66	3593596	319.018896516	4
66	3593750	319.029158153	0
66	3594155	319.054518267	0
66	3597521	319.246987191	0
66	3601408	319.460080023	0
66	3604249	319.610707175	0
66	3605277	319.670613422	0
66	3605432	319.679195578	2
66	3605863	319.705101259	0
66	3605943	319.710258156	0
66	3608618	319.90444174	1
66	3610215	320.078265985	0
66	3610712	320.127328708	0
66	3611644	320.229646194	0
66	3612131	320.273876367	0
66	3617597	320.650209222	1
66	3619659	320.791585062	2
66	3620571	320.863904976	0
66	3622643	321.070172985	0
66	3622660	321.071609277	0
66	3622871	321.093707624	0
66	3623747	321.178376703	0
66	3625966	321.390915863	0
66	3628731	321.708682263	0
66	3629375	321.794668669	0
66	3629895	321.853855202	0
66	3630082	321.870287044	0
66	3631112	321.969358449	0
66	3631295	321.986951689	0
66	3631644	322.022508378	0
66	3633090	322.152531848	0
66	3634018	322.243795358	2
66	3635191	322.33241785	2
66	3636737	322.461342224	0
66	3637126	322.510642274	6
66	3637432	322.531246112	0
66	3637774	322.5703756	0
66	3639195	322.755321567	0
66	3639528	322.794853567	0
66	3639664	322.808818573	0
66	3640109	322.863705031	0
66	3642919	323.104898735	0
66	3644890	323.226369109	0
66	3646278	323.320382094	0
66	3647554	323.420797043	0
66	3647890	323.446496088	0
66	3650880	323.744462121	1
66	3651085	323.764719287	2
66	3651793	323.82051476	0
66	3651873	323.828059882	0
66	3651989	323.840395007	0
66	3652067	323.848063331	0
66	3652562	323.904630199	0
66	3653229	323.976154975	0
66	3653642	324.024116667	0
66	3653799	324.042598935	0
66	3653925	324.05949043	0
66	3654328	324.102692251	0
66	3654726	324.149107284	0
66	3656003	324.269554781	0
66	3657129	324.394423804	0
66	3659351	324.686176515	0
66	3659816	324.752310555	0
66	3661788	325.033814917	0
66	3662090	325.081225377	0
66	3663117	325.203753008	1
66	3663863	325.30373963	0
66	3664855	325.45565855	0
66	3665154	325.504986347	0
66	3665243	325.522755333	0
66	3666259	325.695137853	0
66	3666338	325.702393217	0
66	3666981	325.786020162	0
66	3667250	325.82549821	0
66	3667823	325.892083846	0
66	3667964	325.909782931	0
66	3668026	325.919219879	0
66	3668623	325.986346906	0
66	3672036	326.33501182	0
66	3672917	326.437810407	0
66	3673146	326.469555902	0
66	3673600	326.530702211	0
66	3673692	326.541918901	0
66	3673711	326.544996442	0
66	3674042	326.584195583	0
66	3676967	326.897493363	0
66	3683243	327.441223103	3
66	3684130	327.521133666	0
66	3684453	327.547056554	0
66	3684579	327.560171776	0
66	3686787	327.730390693	2
66	3687001	327.741047476	0
66	3689175	327.890512183	0
66	3693120	328.12342369	0
66	3693695	328.163388973	0
66	3693772	328.169751139	0
66	3696521	328.442982804	0
66	3696712	328.472598068	0
66	3697793	328.635665989	2
66	3698245	328.696796474	0
66	3699397	328.848729869	0
66	3699398	328.849462368	0
66	3700937	329.02590672	0
66	3700960	329.029020276	0
66	3702662	329.195690407	0
66	3702815	329.21176571	0
66	3703833	329.297378712	0
66	3705691	329.43786587	0
66	3705772	329.443588775	0
66	3706626	329.494283255	0
66	3707769	329.564525102	0
66	3707994	329.57744627	0
66	3710162	329.719602917	0
66	3710576	329.746863588	0
66	3710921	329.772349709	0
66	3711168	329.79128421	0
66	3712831	329.90248583	0
66	3716711	330.200281844	0
66	3718471	330.375475626	0
66	3719146	330.445847186	0
66	3720664	330.572224805	0
66	3720750	330.576324528	0
66	3722079	330.696711908	3
66	3723391	330.803021467	0
66	3724118	330.862501741	0
66	3727964	331.211158517	0
66	3731866	331.5622022	0
66	3732562	331.641898843	0
66	3732704	331.657027545	0
66	3735314	332.024169729	0
66	3737292	332.21852836	0
66	3739556	332.390299417	0
66	3741398	332.508838619	0
66	3741489	332.51355768	0
66	3744267	332.680529864	0
66	3744504	332.696153825	0
66	3745783	332.772427212	0
66	3747557	332.883774542	0
66	3748687	332.956897011	0
66	3752084	333.216299408	0
66	3752117	333.219470995	0
66	3753591	333.33654455	0
66	3753823	333.355315347	0
66	3754103	333.372198481	0
66	3755337	333.447011529	0
66	3757575	333.60208792	0
66	3757682	333.60982755	0
66	3759323	333.753314106	0
66	3760095	333.823599622	0
66	3760772	333.894971189	0
66	3765306	334.219533884	0
66	3769032	334.428413019	0
66	3769175	334.436811182	0
66	3771848	334.590666882	0
66	3772940	334.659462393	0
66	3773318	334.688782995	0
66	3773732	334.715080551	0
66	3775258	334.818325881	0
66	3776608	334.911090768	0
66	3780611	335.176993134	0
66	3783207	335.371907631	0
66	3784242	335.43976712	1
66	3785244	335.510054227	0
66	3786013	335.563810351	0
66	3786898	335.632583119	0
66	3788278	335.73869363	0
66	3790597	335.978151501	0
66	3792116	336.105399024	0
66	3792789	336.16279831	0
66	3793993	336.252784281	0
66	3795074	336.335793291	0
66	3796265	336.439797419	0
66	3797292	336.527996623	0
66	3797316	336.531450917	0
66	3799517	336.72338768	0
66	3800343	336.793310069	0
66	3801753	336.909033395	0
66	3802165	336.943670905	2
66	3803550	337.073167186	0
66	3804501	337.177211505	1
66	3806067	337.324878241	0
66	3808705	337.571664838	0
66	3808920	337.593796388	1
66	3810191	337.72825452	0
66	3811456	337.843514832	0
66	3812497	337.949431757	0
66	3813131	338.008423548	0
66	3813207	338.01541657	0
66	3814934	338.18830736	0
66	3815996	338.290299447	0
66	3816825	338.364913501	0
66	3816855	338.368197039	0
66	3817612	338.450098919	0
66	3817966	338.487308671	0
66	3820227	338.708072637	2
66	3822618	338.869448246	0
66	3822706	338.87615817	0
66	3825370	339.038858534	0
66	3829344	339.275491302	0
66	3831817	339.430057211	0
66	3833016	339.522474776	1
66	3833453	339.553747398	0
66	3835732	339.767942456	0
66	3840082	340.131947062	0
66	3844361	340.596568386	0
66	3844453	340.604496539	0
66	3845696	340.724120632	0
66	3845805	340.734152996	0