version 2
run KademliaDHT-0-20211210-14:15:55-8504
attr Lifetime 5000s
attr configname KademliaDHT
attr datetime 20211210-14:15:55
attr experiment KademliaDHT
attr inifile configs.ini
attr iterationvars $Lifetime=5000s
attr iterationvars2 "$Lifetime=5000s, $repetition=0"
attr measurement $Lifetime=5000s
attr network oversim.underlay.simpleunderlay.SimpleUnderlayNetwork
attr processid 8504
attr repetition 0
attr replication #0
attr resultdir results
attr runnumber 0
attr seedset 0

vector 1  SimpleUnderlayNetwork.globalObserver.globalStatistics  "GlobalDhtTestMap: Number of stored DHT entries"  ETV
vector 2  SimpleUnderlayNetwork.globalObserver.globalStatistics  "Kademlia: Buckets Refreshed Per Task"  ETV
vector 3  SimpleUnderlayNetwork.globalObserver.globalStatistics  "LifetimeChurn: Session Time"  ETV
vector 4  SimpleUnderlayNetwork.globalObserver.globalStatistics  "LifetimeChurn: Time between creates"  ETV
vector 5  SimpleUnderlayNetwork.globalObserver.globalStatistics  "LifetimeChurn: Time between deletes"  ETV
vector 6  SimpleUnderlayNetwork.globalObserver.globalStatistics  "GlobalNodeList: Number of nodes"  ETV
1	118735	110	106
1	131939	120	120
1	143520	130	155
1	162609	140	192
1	178878	150	199
1	194755	160	201
1	210642	170	207
1	222199	180	222
1	234768	190	259
1	249018	200	285
1	266239	210	299
1	285368	220	303
1	300918	230	313
1	313068	240	325
1	327000	250	357
1	344186	260	387
1	359443	270	403
1	373894	280	407
1	394096	290	420
1	403845	300	429
1	419315	310	454
1	434220	320	487
1	448799	330	501
1	461939	340	508
1	479015	350	520
1	491208	360	524
1	504676	370	493
1	520515	380	486
1	536451	390	498
1	551853	400	506
1	566600	410	516
1	577209	420	515
1	592475	430	499
1	607973	440	493
1	620453	450	498
1	636051	460	508
1	652615	470	515
1	664000	480	511
1	679394	490	497
1	694259	500	494
1	708539	510	499
1	722079	520	503
1	739622	530	507
1	753086	540	508
1	766410	550	500
1	779069	560	489
1	793630	570	491
1	810212	580	502
1	826332	590	504
1	837170	600	508
1	850758	610	503
1	866152	620	492
1	882727	630	493
1	898202	640	502
1	912985	650	500
1	926142	660	507
1	938743	670	501
1	957128	680	498
1	974352	690	501
1	986527	700	508
1	1001103	710	506
1	1015411	720	510
1	1027273	730	506
1	1042720	740	499
1	1060446	750	506
1	1074528	760	507
1	1093368	770	514
1	1107747	780	512
1	1120946	790	509
1	1135969	800	506
1	1149356	810	506
1	1166413	820	513
1	1184668	830	518
1	1198525	840	520
1	1210048	850	509
1	1228152	860	517
1	1241611	870	515
1	1260418	880	518
1	1278896	890	521
1	1293481	900	521
1	1307341	910	518
1	1320175	920	514
1	1333555	930	521
1	1350791	940	524
1	1366964	950	530
1	1381794	960	520
1	1398309	970	517
1	1412653	980	515
1	1429075	990	519
1	1448420	1000	529
1	1468430	1010	532
1	1483099	1020	527
1	1495176	1030	521
1	1507599	1040	521
1	1524751	1050	524
1	1548223	1060	534
1	1561053	1070	528
1	1576666	1080	530
1	1590262	1090	526
1	1598062	1100	517
2	118775	110.041151746	0
2	118794	110.061568757	0
2	118840	110.125971616	0
2	119010	110.313543406	0
2	119034	110.32683479	0
2	119319	110.54971838	0
2	119434	110.762765037	0
2	119497	110.956804097	0
2	119655	111.180114359	0
2	120197	112.160229254	1
2	156174	135.045655974	0
2	156822	135.483330482	1
2	190192	157.020524426	0
2	223171	180.890040022	0
2	235954	190.852737732	1
2	249047	200.021782933	0
2	249346	200.354083602	0
2	250505	200.886966501	0
2	250652	200.98573654	0
2	251826	201.605838409	0
2	251923	201.673034618	0
2	252303	201.884705538	0
2	252686	202.025241961	0
2	252893	202.074054695	0
2	253406	202.200393834	0
2	253910	202.319892033	0
2	253977	202.336447644	1
2	254407	202.455465058	0
2	254529	202.496729874	0
2	255269	202.718399542	0
2	255758	202.83381138	0
2	255883	202.864688617	0
2	255894	202.865375397	0
2	256321	202.999658369	0
2	256322	203.002165912	0
2	256654	203.133391185	0
2	256733	203.176666821	0
2	256752	203.183534523	5
2	256799	203.191249098	0
2	257216	203.419160904	0
2	257231	203.426720057	0
2	257807	203.810526203	0
2	257903	203.861568185	0
2	258129	204.002478547	0
2	258327	204.113406428	0
2	258403	204.168955735	0
2	258404	204.170026678	0
2	258570	204.264505953	0
2	259010	204.445917305	0
2	259036	204.458606431	0
2	259255	204.570557258	0
2	259342	204.605653565	0
2	259343	204.605792739	0
2	259355	204.609511579	0
2	259417	204.646665221	0
2	259796	204.991231725	0
2	259906	205.179383171	0
2	260123	205.327193421	0
2	260361	205.457792564	0
2	260366	205.462059104	0
2	260455	205.510656906	0
2	260544	205.572180034	0
2	260819	205.800223303	0
2	261092	205.974106371	0
2	261093	205.975843795	0
2	261254	206.120972959	0
2	261409	206.259014604	0
2	261410	206.262933654	0
2	261466	206.317796695	0
2	261494	206.330102211	0
2	261726	206.517167772	0
2	261741	206.536965212	0
2	262200	206.950785938	0
2	262581	207.144322508	0
2	262660	207.191198689	0
2	262751	207.239704858	0
2	262761	207.246665032	0
2	262851	207.295186376	0
2	262896	207.316115616	0
2	263183	207.496606473	0
2	263318	207.566488786	0
2	263324	207.568406059	0
2	263521	207.681621411	0
2	263559	207.710422834	0
2	263644	207.736699912	0
2	263766	207.8076669	0
2	263823	207.847075791	0
2	264160	208.12863197	0
2	264212	208.184950021	0
2	264809	208.595219323	0
2	264892	208.629855963	0
2	265114	208.803915478	0
2	265221	208.877632343	0
2	265261	208.910391971	0
2	265264	208.930900124	0
2	265422	209.121313917	0
2	265436	209.13885478	0
2	265599	209.412255858	0
2	265649	209.456597416	0
2	265744	209.552370557	0
2	265759	209.567286123	2
2	265798	209.593196465	0
2	265836	209.649546465	0
2	265999	209.790481121	0
2	266275	210.041151746	0
2	266288	210.061568757	0
2	266339	210.125971616	0
2	266657	210.313543406	0
2	266684	210.32683479	0
2	267001	210.54971838	0
2	267380	210.762765037	0
2	267635	210.956804097	2
2	267836	211.180114359	0
2	268246	212.160229254	0
2	307772	235.045655974	0
2	308103	235.483330482	0
2	339830	257.020524426	0
2	375220	280.890040022	0
2	395285	290.852737732	0
2	403869	300.021782933	0
2	404495	300.354083602	0
2	404793	300.886966501	0
2	404946	300.98573654	0
2	406100	301.605838409	0
2	406272	301.673034618	0
2	406842	301.884705538	0
2	407188	302.025241961	0
2	407302	302.074054695	0
2	407593	302.200393834	0
2	407807	302.319892033	0
2	407834	302.336447644	0
2	408050	302.455465058	0
2	408127	302.496729874	0
2	408514	302.718399542	0
2	408631	302.83381138	0
2	408647	302.864688617	0
2	408812	302.999658369	0
2	408813	303.002165912	0
2	408935	303.133391185	0
2	408967	303.176666821	0
2	408983	303.183534523	0
2	408994	303.191249098	0
2	409182	303.419160904	0
2	409189	303.426720057	0
2	409757	303.810526203	0
2	409863	303.861568185	0
2	410037	304.002478547	0
2	410153	304.113406428	0
2	410229	304.168955735	0
2	410232	304.170026678	0
2	410375	304.264505953	0
2	410623	304.445917305	0
2	410645	304.458606431	0
2	410745	304.570557258	0
2	410794	304.605653565	0
2	410795	304.605792739	0
2	410796	304.609511579	0
2	410824	304.646665221	0
2	411256	304.991231725	0
2	411623	305.179383171	0
2	411736	305.327193421	0
2	411932	305.457792564	0
2	411939	305.462059104	0
2	411996	305.510656906	0
2	412105	305.572180034	0
2	412317	305.800223303	0
2	412520	305.974106371	0
2	412521	305.975843795	0
2	412777	306.259014604	0
2	412778	306.262933654	0
2	412863	306.317796695	0
2	412879	306.330102211	0
2	413198	306.517167772	0
2	413245	306.536965212	0
2	414132	306.950785938	0
2	414704	307.144322508	0
2	414882	307.191198689	0
2	414976	307.239704858	0
2	414989	307.246665032	0
2	415071	307.295186376	0
2	415101	307.316115616	0
2	415409	307.496606473	0
2	415520	307.566488786	0
2	415526	307.568406059	0
2	415613	307.681621411	0
2	415630	307.710422834	0
2	415648	307.736699912	0
2	415749	307.8076669	0
2	415796	307.847075791	0
2	416004	308.12863197	0
2	416078	308.184950021	0
2	416723	308.595219323	0
2	416814	308.629855963	0
2	417091	308.803915478	0
2	417183	308.877632343	0
2	417258	308.910391971	0
2	417316	308.930900124	0
2	417839	309.13885478	0
2	418411	309.412255858	0
2	418486	309.456597416	0
2	418615	309.552370557	0
2	418627	309.567286123	0
2	418641	309.593196465	0
2	418762	309.649546465	0
2	419040	309.790481121	0
2	419362	310.041151746	0
2	419378	310.061568757	0
2	419442	310.125971616	0
2	419601	310.313543406	0
2	419608	310.32683479	0
2	419792	310.54971838	0
2	420125	310.762765037	0
2	420526	310.956804097	0
2	420975	311.180114359	0
2	422957	312.160229254	0
2	437187	321.741237439	0
2	455001	335.045655974	0
2	455193	335.483330482	0
2	487553	357.020524426	0
2	522265	380.890040022	0
2	538419	390.852737732	0
2	551883	400.021782933	0
2	552214	400.354083602	0
2	553698	400.886966501	0
2	553932	400.98573654	0
2	554849	401.605838409	0
2	554903	401.673034618	0
2	555119	401.884705538	0
2	555348	402.025241961	0
2	555407	402.074054695	0
2	555582	402.200393834	0
2	555669	402.319892033	0
2	555683	402.336447644	0
2	555861	402.455465058	0
2	555946	402.496729874	0
2	556402	402.718399542	0
2	556657	402.83381138	1
2	556733	402.864688617	0
2	556909	402.999658369	0
2	556915	403.002165912	0
2	557047	403.133391185	0
2	557083	403.176666821	0
2	557084	403.183534523	0
2	557095	403.191249098	0
2	557367	403.419160904	0
2	557380	403.426720057	0
2	558415	403.810526203	0
2	558602	403.861568185	0
2	559024	404.002478547	0
2	559445	404.113406428	0
2	559635	404.168955735	0
2	559641	404.170026678	0
2	559878	404.264505953	0
2	560058	404.445917305	0
2	560073	404.458606431	0
2	560142	404.570557258	0
2	560151	404.605653565	0
2	560152	404.605792739	0
2	560156	404.609511579	0
2	560178	404.646665221	0
2	560817	404.991231725	0
2	561140	405.179383171	0
2	561325	405.327193421	0
2	561452	405.457792564	0
2	561463	405.462059104	0
2	561485	405.510656906	0
2	561529	405.572180034	0
2	561615	405.800223303	0
2	561887	405.974106371	0
2	561894	405.975843795	0
2	562496	406.259014604	0
2	562514	406.262933654	0
2	562596	406.317796695	0
2	562611	406.330102211	0
2	562808	406.517167772	0
2	562821	406.536965212	0
2	563032	406.950785938	0
2	563212	407.144322508	0
2	563238	407.191198689	0
2	563270	407.239704858	0
2	563285	407.246665032	0
2	563366	407.295186376	0
2	563405	407.316115616	0
2	563606	407.496606473	0
2	563678	407.566488786	0
2	563683	407.568406059	0
2	563799	407.681621411	0
2	563811	407.710422834	0
2	563818	407.736699912	0
2	563881	407.847075791	0
2	564305	408.12863197	0
2	564368	408.184950021	0
2	564922	408.595219323	0
2	565019	408.629855963	0
2	565366	408.803915478	0
2	565496	408.877632343	0
2	565556	408.910391971	0
2	565608	408.930900124	0
2	565985	409.13885478	0
2	566216	409.412255858	0
2	566258	409.456597416	0
2	566300	409.552370557	0
2	566303	409.567286123	0
2	566325	409.593196465	0
2	566368	409.649546465	0
2	566475	409.790481121	0
2	566603	410.041151746	0
2	566612	410.061568757	0
2	566617	410.125971616	0
2	566696	410.313543406	0
2	566703	410.32683479	0
2	566949	410.54971838	0
2	567440	410.762765037	0
2	567732	410.956804097	0
2	568000	411.180114359	0
2	568889	412.160229254	0
2	579407	421.741237439	0
2	600871	435.045655974	0
2	601319	435.483330482	0
2	613037	445.333437914	2
2	632433	457.020524426	0
2	651761	469.128506013	0
2	665210	480.890040022	0
2	680425	490.852737732	0
2	694284	500.021782933	0
2	694596	500.354083602	0
2	695346	500.886966501	0
2	695505	500.98573654	0
2	696155	501.605838409	0
2	696222	501.673034618	0
2	696510	501.884705538	0
2	696752	502.025241961	0
2	696819	502.074054695	0
2	697059	502.200393834	0
2	697231	502.319892033	0
2	697247	502.336447644	0
2	697483	502.455465058	0
2	697549	502.496729874	0
2	697812	502.718399542	0
2	697956	502.83381138	0
2	698013	502.864688617	0
2	698120	502.999658369	0
2	698121	503.002165912	0
2	698198	503.133391185	0
2	698260	503.176666821	0
2	698274	503.183534523	0
2	698279	503.191249098	0
2	698455	503.419160904	0
2	698469	503.426720057	0
2	698871	503.810526203	0
2	698900	503.861568185	0
2	699038	504.002478547	1
2	699145	504.113406428	0
2	699200	504.168955735	0
2	699204	504.170026678	0
2	699307	504.264505953	0
2	699463	504.445917305	0
2	699467	504.458606431	0
2	699567	504.570557258	0
2	699605	504.605653565	0
2	699606	504.605792739	0
2	699615	504.609511579	0
2	699657	504.646665221	0
2	700107	504.991231725	0
2	700587	505.179383171	0
2	701095	505.327193421	0
2	701604	505.457792564	0
2	701624	505.462059104	0
2	701820	505.510656906	0
2	702001	505.572180034	0
2	702576	505.800223303	0
2	702827	505.974106371	0
2	702834	505.975843795	0
2	703214	506.259014604	0
2	703222	506.262933654	0
2	703339	506.317796695	0
2	703359	506.330102211	0
2	703625	506.517167772	0
2	703662	506.536965212	0
2	704054	506.950785938	0
2	704480	507.144322508	0
2	704517	507.191198689	0
2	704599	507.239704858	0
2	704612	507.246665032	0
2	704678	507.295186376	0
2	704704	507.316115616	0
2	705047	507.496606473	0
2	705155	507.566488786	0
2	705166	507.568406059	0
2	705402	507.681621411	0
2	705439	507.710422834	0
2	705481	507.736699912	0
2	705713	507.847075791	0
2	705971	508.12863197	0
2	706002	508.184950021	0
2	706311	508.595219323	0
2	706362	508.629855963	0
2	706600	508.803915478	0
2	706700	508.877632343	0
2	706749	508.910391971	0
2	706784	508.930900124	0
2	707094	509.13885478	0
2	707305	509.412255858	0
2	707362	509.456597416	0
2	707514	509.552370557	0
2	707526	509.567286123	0
2	707611	509.593196465	0
2	707717	509.649546465	0
2	708071	509.790481121	0
2	708684	510.061568757	0
2	708844	510.125971616	0
2	709128	510.313543406	0
2	709131	510.32683479	0
2	709273	510.54971838	0
2	709485	510.762765037	0
2	709733	510.956804097	0
2	709989	511.180114359	0
2	711075	512.160229254	0
2	723427	521.171396511	2
2	724697	521.741237439	0
2	746781	535.045655974	0
2	747335	535.483330482	0
2	760027	545.333437914	0
2	775025	557.020524426	0
2	792804	569.128506013	0
2	805373	576.411420907	0
2	811311	580.890040022	0
2	826793	590.852737732	0
2	837184	600.021782933	0
2	837367	600.354083602	0
2	837802	600.886966501	0
2	837948	600.98573654	0
2	838955	601.605838409	0
2	839049	601.673034618	0
2	839318	601.884705538	0
2	839556	602.025241961	0
2	839625	602.074054695	0
2	839760	602.200393834	0
2	839975	602.319892033	0
2	839991	602.336447644	0
2	840128	602.455465058	0
2	840160	602.496729874	0
2	840342	602.718399542	0
2	840462	602.83381138	0
2	840637	602.999658369	0
2	840640	603.002165912	0
2	840868	603.133391185	0
2	840962	603.176666821	0
2	840976	603.183534523	0
2	841009	603.191249098	0
2	841382	603.419160904	0
2	841396	603.426720057	0
2	841768	603.810526203	0
2	841805	603.861568185	0
2	841962	604.002478547	0
2	842164	604.113406428	0
2	842235	604.168955735	0
2	842238	604.170026678	0
2	842434	604.264505953	0
2	842936	604.445917305	0
2	842987	604.458606431	0
2	843266	604.605653565	0
2	843267	604.605792739	0
2	843274	604.609511579	0
2	843352	604.646665221	0
2	844123	604.991231725	0
2	844656	605.179383171	0
2	845052	605.327193421	0
2	845450	605.457792564	0
2	845459	605.462059104	0
2	845557	605.510656906	0
2	845638	605.572180034	0
2	845721	605.800223303	0
2	845723	605.974106371	0
2	845724	605.975843795	0
2	845726	606.259014604	0
2	845727	606.262933654	0
2	845818	606.317796695	0
2	845826	606.330102211	0
2	846243	606.517167772	0
2	846302	606.536965212	0
2	847053	606.950785938	0
2	847177	607.144322508	0
2	847188	607.191198689	0
2	847191	607.239704858	0
2	847192	607.246665032	0
2	847196	607.295186376	0
2	847197	607.316115616	0
2	847202	607.496606473	0
2	847204	607.566488786	0
2	847205	607.568406059	0
2	847218	607.681621411	0
2	847232	607.710422834	0
2	847251	607.736699912	0
2	847334	607.847075791	0
2	847999	608.12863197	0
2	848123	608.184950021	0
2	848697	608.595219323	0
2	848720	608.629855963	0
2	848813	608.803915478	0
2	848856	608.877632343	0
2	848874	608.910391971	0
2	848878	608.930900124	0
2	848927	609.13885478	0
2	849277	609.412255858	0
2	849407	609.456597416	0
2	849603	609.552370557	0
2	849650	609.567286123	0
2	849748	609.593196465	0
2	849915	609.649546465	0
2	850335	609.790481121	1
2	850867	610.061568757	0
2	850956	610.125971616	0
2	851179	610.313543406	0
2	851218	610.32683479	0
2	852090	610.54971838	0
2	852857	610.762765037	0
2	853305	610.956804097	0
2	853934	611.180114359	0
2	855818	612.160229254	0
2	867957	621.171396511	0
2	869183	621.741237439	0
2	889222	635.045655974	0
2	889490	635.483330482	0
2	905235	645.333437914	0
2	923454	657.020524426	0
2	937685	669.128506013	0
2	950037	676.411420907	0
2	955502	678.812078438	1
2	957737	680.890040022	0
2	975923	690.852737732	0
2	986539	700.021782933	0
2	986676	700.354083602	0
2	987233	700.886966501	0
2	987367	700.98573654	0
2	987983	701.605838409	1
2	988112	701.673034618	0
2	988400	701.884705538	0
2	988648	702.025241961	0
2	988738	702.074054695	0
2	988999	702.200393834	0
2	989302	702.319892033	0
2	989346	702.336447644	0
2	989649	702.455465058	0
2	989738	702.496729874	0
2	990440	702.718399542	0
2	990784	702.83381138	0
2	991150	702.999658369	0
2	991157	703.002165912	0
2	991584	703.133391185	0
2	991756	703.176666821	0
2	991797	703.183534523	0
2	991837	703.191249098	0
2	992482	703.419160904	0
2	992493	703.426720057	0
2	993047	703.810526203	0
2	993100	703.861568185	0
2	993215	704.002478547	0
2	993349	704.113406428	0
2	993394	704.168955735	0
2	993395	704.170026678	0
2	993446	704.264505953	0
2	993665	704.445917305	0
2	993686	704.458606431	0
2	993878	704.605653565	0
2	993879	704.605792739	0
2	993899	704.609511579	0
2	993955	704.646665221	0
2	994330	704.991231725	0
2	994537	705.179383171	0
2	994910	705.327193421	0
2	995177	705.457792564	0
2	995192	705.462059104	0
2	995267	705.510656906	0
2	995388	705.572180034	0
2	995617	705.800223303	0
2	995803	705.974106371	0
2	995804	705.975843795	0
2	996015	706.259014604	0
2	996019	706.262933654	0
2	996069	706.317796695	0
2	996094	706.330102211	0
2	996341	706.517167772	0
2	996374	706.536965212	0
2	997196	706.950785938	0
2	997730	707.144322508	0
2	997811	707.191198689	0
2	997918	707.239704858	0
2	997925	707.246665032	0
2	998034	707.295186376	0
2	998112	707.316115616	0
2	998388	707.496606473	0
2	998462	707.566488786	0
2	998466	707.568406059	0
2	998639	707.681621411	0
2	998712	707.710422834	0
2	998758	707.736699912	0
2	999046	707.847075791	0
2	999821	708.12863197	0
2	999940	708.184950021	0
2	1000376	708.595219323	0
2	1000384	708.629855963	0
2	1000428	708.803915478	0
2	1000441	708.877632343	0
2	1000460	708.910391971	0
2	1000463	708.930900124	0
2	1000587	709.13885478	0
2	1000719	709.412255858	0
2	1000734	709.456597416	0
2	1000795	709.552370557	0
2	1000807	709.567286123	0
2	1000833	709.593196465	0
2	1000857	709.649546465	0
2	1000903	709.790481121	0
2	1001195	710.061568757	0
2	1001346	710.125971616	0
2	1001687	710.313543406	0
2	1001706	710.32683479	0
2	1002322	710.54971838	0
2	1002985	710.762765037	0
2	1003470	710.956804097	0
2	1003707	711.180114359	0
2	1005284	712.160229254	0
2	1013986	718.351252368	0
2	1016862	721.171396511	0
2	1017560	721.741237439	0
2	1023781	727.904486562	2
2	1035018	735.045655974	0
2	1035163	735.483330482	0
2	1052364	745.333437914	0
2	1068483	757.020524426	0
2	1091885	769.038775203	1
2	1091987	769.128506013	0
2	1103833	776.411420907	0
2	1105930	778.812078438	0
2	1108260	780.890040022	0
2	1122901	790.852737732	0
2	1123107	791.130271453	0
2	1135995	800.021782933	0
2	1136549	800.354083602	0
2	1137454	800.886966501	0
2	1137750	800.98573654	0
2	1138639	801.605838409	0
2	1138663	801.673034618	0
2	1138791	801.884705538	0
2	1138884	802.025241961	0
2	1138903	802.074054695	0
2	1138932	802.200393834	2
2	1138993	802.319892033	0
2	1139004	802.336447644	0
2	1139072	802.455465058	0
2	1139078	802.496729874	0
2	1139466	802.718399542	0
2	1139726	802.83381138	0
2	1139908	802.999658369	0
2	1139909	803.002165912	0
2	1139993	803.133391185	0
2	1140016	803.176666821	0
2	1140017	803.183534523	0
2	1140018	803.191249098	0
2	1140116	803.419160904	0
2	1140117	803.426720057	0
2	1140417	803.810526203	0
2	1140549	803.861568185	0
2	1140959	804.002478547	0
2	1141320	804.113406428	0
2	1141490	804.170026678	0
2	1141680	804.264505953	0
2	1142119	804.445917305	0
2	1142156	804.458606431	2
2	1142449	804.605653565	0
2	1142453	804.605792739	0
2	1142454	804.609511579	0
2	1142498	804.646665221	0
2	1142931	804.991231725	0
2	1143048	805.179383171	0
2	1143151	805.327193421	0
2	1143242	805.457792564	0
2	1143246	805.462059104	0
2	1143280	805.510656906	0
2	1143299	805.572180034	0
2	1143415	805.800223303	0
2	1143485	805.974106371	0
2	1143489	805.975843795	0
2	1143591	806.259014604	0
2	1143592	806.262933654	0
2	1143623	806.317796695	0
2	1143635	806.330102211	0
2	1143776	806.517167772	0
2	1143807	806.536965212	0
2	1144545	806.950785938	0
2	1144852	807.144322508	0
2	1144927	807.191198689	0
2	1144995	807.239704858	0
2	1145008	807.246665032	0
2	1145042	807.295186376	0
2	1145058	807.316115616	0
2	1145212	807.496606473	0
2	1145237	807.566488786	0
2	1145238	807.568406059	0
2	1145278	807.681621411	0
2	1145288	807.710422834	0
2	1145324	807.736699912	0
2	1145519	807.847075791	0
2	1146042	808.12863197	0
2	1146119	808.184950021	0
2	1147146	808.595219323	0
2	1147214	808.629855963	0
2	1147646	808.803915478	0
2	1147795	808.877632343	0
2	1147845	808.910391971	0
2	1147874	808.930900124	0
2	1148354	809.13885478	0
2	1148760	809.412255858	0
2	1148793	809.456597416	0
2	1148873	809.567286123	0
2	1148904	809.593196465	0
2	1148994	809.649546465	0
2	1149132	809.790481121	0
2	1149418	810.061568757	0
2	1149480	810.125971616	1
2	1149827	810.313543406	0
2	1149877	810.32683479	0
2	1150509	810.54971838	0
2	1150996	810.762765037	0
2	1151267	810.956804097	0
2	1151661	811.180114359	0
2	1153671	812.160229254	0
2	1163288	818.351252368	0
2	1168660	821.171396511	0
2	1169745	821.741237439	0
2	1180600	827.904486562	0
2	1193587	835.045655974	0
2	1194336	835.483330482	0
2	1204419	845.333437914	0
2	1220355	857.020524426	0
2	1239748	869.038775203	0
2	1239981	869.128506013	0
2	1251057	876.411420907	0
2	1257769	878.812078438	0
2	1262102	880.890040022	0
2	1280123	890.852737732	0
2	1280849	891.130271453	0
2	1293533	900.021782933	0
2	1293874	900.354083602	0
2	1294281	900.886966501	0
2	1294366	900.98573654	0
2	1294967	901.605838409	0
2	1295076	901.673034618	0
2	1295399	901.884705538	0
2	1295629	902.025241961	0
2	1295668	902.074054695	0
2	1295742	902.200393834	0
2	1295765	902.336447644	0
2	1295886	902.455465058	0
2	1295943	902.496729874	0
2	1296216	902.718399542	0
2	1296333	902.83381138	0
2	1296495	902.999658369	0
2	1296499	903.002165912	0
2	1296586	903.133391185	0
2	1296610	903.176666821	0
2	1296613	903.183534523	0
2	1296621	903.191249098	0
2	1296657	903.419160904	0
2	1296658	903.426720057	0
2	1296910	903.810526203	0
2	1296958	903.861568185	0
2	1297044	904.002478547	0
2	1297081	904.113406428	0
2	1297098	904.170026678	0
2	1297142	904.264505953	0
2	1297267	904.445917305	0
2	1297280	904.458606431	0
2	1297428	904.605653565	0
2	1297429	904.605792739	0
2	1297430	904.609511579	0
2	1297480	904.646665221	0
2	1297931	904.991231725	0
2	1298289	905.179383171	0
2	1298665	905.327193421	0
2	1298973	905.457792564	0
2	1298978	905.462059104	0
2	1299063	905.510656906	0
2	1299148	905.572180034	0
2	1299548	905.800223303	0
2	1299725	905.974106371	0
2	1299732	905.975843795	0
2	1300083	906.259014604	0
2	1300093	906.262933654	0
2	1300268	906.317796695	0
2	1300300	906.330102211	0
2	1300955	906.517167772	0
2	1301006	906.536965212	0
2	1301812	906.950785938	0
2	1302058	907.144322508	0
2	1302107	907.191198689	0
2	1302151	907.239704858	0
2	1302155	907.246665032	0
2	1302198	907.295186376	0
2	1302204	907.316115616	0
2	1302672	907.496606473	0
2	1302905	907.566488786	0
2	1302909	907.568406059	0
2	1303212	907.681621411	0
2	1303249	907.710422834	0
2	1303290	907.736699912	0
2	1303454	907.847075791	0
2	1303741	908.12863197	0
2	1303838	908.184950021	0
2	1305051	908.595219323	0
2	1305111	908.629855963	0
2	1305493	908.803915478	0
2	1305580	908.877632343	0
2	1305639	908.910391971	0
2	1305671	908.930900124	0
2	1305976	909.13885478	0
2	1306508	909.412255858	0
2	1306538	909.456597416	0
2	1306676	909.567286123	0
2	1306724	909.593196465	0
2	1306827	909.649546465	0
2	1307013	909.790481121	0
2	1307400	910.061568757	0
2	1307455	910.125971616	0
2	1307705	910.313543406	0
2	1307724	910.32683479	0
2	1308010	910.54971838	0
2	1308223	910.762765037	0
2	1308412	910.956804097	0
2	1308812	911.180114359	0
2	1309477	912.160229254	0
2	1317899	918.351252368	0
2	1321378	921.171396511	0
2	1330799	927.904486562	0
2	1341251	935.045655974	0
2	1342351	935.483330482	0
2	1359425	945.333437914	0
2	1367231	950.446774638	0
2	1369013	952.482848314	2
2	1378397	957.020524426	0
2	1396994	969.038775203	0
2	1397077	969.128506013	0
2	1406873	976.411420907	0
2	1411508	978.812078438	0
2	1413592	980.890040022	0
2	1430971	990.852737732	0
2	1431567	991.130271453	0
2	1448490	1000.021782933	0
2	1448813	1000.354083602	0
2	1449078	1000.797510267	2
2	1449175	1000.886966501	0
2	1449277	1000.98573654	2
2	1451347	1001.605838409	0
2	1451515	1001.673034618	0
2	1452009	1001.884705538	0
2	1452450	1002.025241961	0
2	1452618	1002.074054695	0
2	1453087	1002.200393834	0
2	1453493	1002.336447644	0
2	1453835	1002.455465058	0
2	1453954	1002.496729874	0
2	1454418	1002.642617202	3
2	1454820	1002.718399542	0
2	1455098	1002.83381138	0
2	1455390	1002.999658369	0
2	1455397	1003.002165912	0
2	1455751	1003.133391185	0
2	1455884	1003.176666821	0
2	1455910	1003.183534523	0
2	1455933	1003.191249098	0
2	1456522	1003.419160904	0
2	1456536	1003.426720057	0
2	1457023	1003.810526203	0
2	1457066	1003.861568185	0
2	1457467	1004.002478547	0
2	1457689	1004.113406428	0
2	1457781	1004.170026678	0
2	1458134	1004.264505953	0
2	1458829	1004.445917305	0
2	1458872	1004.458606431	0
2	1459455	1004.605653565	0
2	1459456	1004.605792739	0
2	1459472	1004.609511579	0
2	1459619	1004.646665221	0
2	1460381	1004.991231725	0
2	1460632	1005.179383171	0
2	1460833	1005.327193421	0
2	1461005	1005.457792564	0
2	1461018	1005.462059104	0
2	1461081	1005.510656906	0
2	1461191	1005.572180034	0
2	1461716	1005.800223303	0
2	1461970	1005.974106371	0
2	1461975	1005.975843795	0
2	1462370	1006.259014604	0
2	1462374	1006.262933654	0
2	1462517	1006.317796695	0
2	1462542	1006.330102211	0
2	1463018	1006.517167772	0
2	1463036	1006.536965212	0
2	1463757	1006.950785938	0
2	1464006	1007.144322508	0
2	1464061	1007.191198689	0
2	1464095	1007.239704858	0
2	1464096	1007.246665032	0
2	1464177	1007.295186376	0
2	1464203	1007.316115616	0
2	1464511	1007.496606473	0
2	1464611	1007.566488786	0
2	1464614	1007.568406059	0
2	1464767	1007.681621411	0
2	1464795	1007.710422834	0
2	1464823	1007.736699912	0
2	1464913	1007.847075791	0
2	1465227	1008.12863197	0
2	1465341	1008.184950021	0
2	1466030	1008.595219323	0
2	1466138	1008.629855963	0
2	1466666	1008.803915478	0
2	1466867	1008.877632343	0
2	1466945	1008.910391971	0
2	1466972	1008.930900124	0
2	1467179	1009.13885478	0
2	1467675	1009.412255858	0
2	1467760	1009.456597416	0
2	1467912	1009.567286123	0
2	1467930	1009.593196465	0
2	1467979	1009.649546465	0
2	1468157	1009.790481121	0
2	1468461	1010.061568757	0
2	1468483	1010.125971616	0
2	1468567	1010.313543406	0
2	1468573	1010.32683479	0
2	1468720	1010.54971838	0
2	1468897	1010.762765037	0
2	1468966	1010.956804097	0
2	1469005	1011.180114359	0
2	1469309	1011.523844426	2
2	1470547	1012.160229254	0
2	1480251	1018.351252368	0
2	1484258	1021.171396511	0
2	1491875	1027.904486562	0
2	1501007	1035.045655974	0
2	1501474	1035.483330482	0
2	1516465	1045.333437914	0
2	1525449	1050.446774638	0
2	1530431	1052.482848314	1
2	1538823	1057.020524426	0
2	1559814	1069.038775203	0
2	1559846	1069.128506013	0
2	1570666	1076.411420907	0
2	1574241	1078.812078438	0
2	1577980	1080.890040022	0
2	1591441	1090.852737732	0
2	1591586	1091.130271453	0
2	1598064	1100.021782933	0
2	1598071	1100.354083602	0
2	1598077	1100.797510267	0
2	1598079	1100.886966501	0
2	1598081	1100.98573654	0
2	1598090	1101.605838409	0
2	1598091	1101.673034618	0
2	1598095	1102.025241961	0
2	1598098	1102.074054695	0
2	1598101	1102.200393834	0
2	1598102	1102.336447644	0
2	1598104	1102.455465058	0
2	1598105	1102.496729874	2
2	1598175	1102.642617202	0
2	1598204	1102.718399542	2
2	1598274	1102.83381138	0
2	1598317	1102.999658369	0
2	1598318	1103.002165912	0
2	1598331	1103.133391185	0
2	1598332	1103.176666821	3
2	1598384	1103.183534523	0
2	1598394	1103.191249098	1
2	1598507	1103.419160904	0
2	1598508	1103.426720057	1
2	1598560	1103.810526203	0
2	1598562	1103.861568185	0
2	1598564	1104.002478547	1
2	1598594	1104.113406428	0
2	1598613	1104.170026678	0
2	1598619	1104.264505953	0
2	1598660	1104.445917305	0
2	1598679	1104.458606431	0
2	1598787	1104.605653565	0
2	1598788	1104.605792739	0
2	1598789	1104.609511579	2
2	1598818	1104.646665221	0
2	1598843	1104.719229236	5
2	1599379	1104.991231725	0
2	1599451	1105.179383171	1
2	1599520	1105.327193421	0
2	1599553	1105.457792564	0
2	1599554	1105.462059104	1
2	1599576	1105.510656906	0
2	1599600	1105.572180034	0
2	1599623	1105.800223303	1
2	1599674	1105.974106371	7
2	1599724	1105.975843795	0
2	1599977	1106.259014604	0
2	1599978	1106.262933654	0
2	1599992	1106.317796695	0
2	1600002	1106.330102211	5
2	1600191	1106.517167772	0
2	1600218	1106.536965212	0
2	1600288	1106.950785938	1
2	1600328	1107.144322508	0
2	1600333	1107.191198689	0
2	1600335	1107.239704858	0
2	1600336	1107.246665032	0
2	1600337	1107.295186376	3
2	1600384	1107.316115616	0
2	1600448	1107.496606473	0
2	1600452	1107.566488786	0
2	1600453	1107.568406059	1
2	1600505	1107.681621411	0
2	1600506	1107.710422834	1
2	1600528	1107.736699912	0
2	1600553	1107.847075791	0
2	1600579	1108.12863197	1
2	1600601	1108.184950021	0
2	1600631	1108.629855963	0
2	1600633	1108.803915478	1
2	1600669	1108.877632343	0
2	1600675	1108.910391971	0
2	1600676	1108.930900124	4
2	1600828	1109.13885478	0
2	1600853	1109.412255858	1
2	1600866	1109.456597416	0
2	1600884	1109.567286123	0
2	1600890	1109.593196465	1
2	1600915	1109.649546465	5
2	1601029	1109.790481121	0
3	119480	110.95064073	6721.226360761
3	156034	134.941766564	3909.878604378
3	220070	178.933927759	2614.350150442
3	234797	190.014148746	3224.542455829
3	251440	201.414564423	10129.544085516
3	434865	320.576452331	522.806128875
3	611908	443.852411697	4289.478205371
3	647336	465.805130621	2057.889981213
3	718302	517.670419707	6492.228178023
3	801125	574.964453144	10562.107880231
3	950601	676.703116363	3347.702954305
3	1011297	716.653567803	9236.638255009
3	1021805	726.265106909	2316.950137699
3	1085923	766.154268324	7528.921293186
3	1114232	786.427927524	3841.266709337
3	1365371	949.195038979	4655.133338812