version 2
run KademliaDHT-0-20211202-21:55:56-9356
attr Lifetime 100s
attr configname KademliaDHT
attr datetime 20211202-21:55:56
attr experiment KademliaDHT
attr inifile configs.ini
attr iterationvars $Lifetime=100s
attr iterationvars2 "$Lifetime=100s, $repetition=0"
attr measurement $Lifetime=100s
attr network oversim.underlay.simpleunderlay.SimpleUnderlayNetwork
attr processid 9356
attr repetition 0
attr replication #0
attr resultdir results
attr runnumber 0
attr seedset 0

vector 1  SimpleUnderlayNetwork.globalObserver.globalStatistics  "GlobalNodeList: Number of nodes"  ETV
vector 2  SimpleUnderlayNetwork.globalObserver.globalStatistics  "GlobalDhtTestMap: Number of stored DHT entries"  ETV
vector 3  SimpleUnderlayNetwork.globalObserver.globalStatistics  "LifetimeChurn: Session Time"  ETV
vector 4  SimpleUnderlayNetwork.globalObserver.globalStatistics  "LifetimeChurn: Time between creates"  ETV
vector 5  SimpleUnderlayNetwork.globalObserver.globalStatistics  "Kademlia: Buckets Refreshed Per Task"  ETV
vector 6  SimpleUnderlayNetwork.globalObserver.globalStatistics  "LifetimeChurn: Time between deletes"  ETV
1	1165368	150	537
1	1745509	200	550
1	2496384	250	549
1	3351146	300	524
1	4409286	350	522
1	5521768	400	539
1	6695407	450	544
1	7838249	500	533
1	8901216	550	548
1	10037417	600	543
1	11202997	650	542
1	12449341	700	550
1	13605485	750	548
1	14697466	800	520
1	16165467	850	561
1	17592237	900	568
1	18713373	950	545
1	19811293	1000	539
1	21070031	1050	548
1	22452400	1100	551
2	1165369	150	519
2	1286419	160	587
2	1390363	170	635
2	1504403	180	685
2	1630386	190	741
2	1745510	200	800
2	1880546	210	859
2	2012518	220	919
2	2170653	230	965
2	2346681	240	1023
2	2496385	250	1090
2	2639088	260	1140
2	2806331	270	1199
2	2986985	280	1260
2	3158126	290	1308
2	3351147	300	1379
2	3510271	310	1425
2	3686965	320	1485
2	3895713	330	1528
2	4130320	340	1575
2	4409287	350	1621
2	4653862	360	1673
2	4847881	370	1656
2	5062725	380	1649
2	5291004	390	1641
2	5521769	400	1630
2	5763636	410	1643
2	5986351	420	1669
2	6212374	430	1659
2	6462988	440	1666
2	6695408	450	1660
2	6966972	460	1649
2	7181019	470	1660
2	7415530	480	1663
2	7635746	490	1664
2	7838250	500	1667
2	8018899	510	1667
2	8232724	520	1669
2	8461334	530	1690
2	8670450	540	1686
2	8901217	550	1675
2	9135435	560	1681
2	9352512	570	1678
2	9569590	580	1683
2	9791163	590	1691
2	10037418	600	1671
2	10249290	610	1671
2	10470510	620	1666
2	10720279	630	1682
2	10964873	640	1694
2	11202998	650	1709
2	11492428	660	1698
2	11732862	670	1720
2	11944335	680	1712
2	12196956	690	1717
2	12449342	700	1728
2	12678639	710	1731
2	12884410	720	1739
2	13109725	730	1738
2	13360263	740	1723
2	13605486	750	1722
2	13817244	760	1720
2	14036084	770	1714
2	14246710	780	1707
2	14491161	790	1703
2	14697467	800	1698
2	14969529	810	1705
2	15255157	820	1700
2	15577538	830	1678
2	15866563	840	1684
2	16165468	850	1691
2	16425823	860	1683
2	16702755	870	1686
2	16982056	880	1688
2	17261671	890	1692
2	17592238	900	1693
2	17869256	910	1706
2	18107155	920	1706
2	18313580	930	1718
2	18504229	940	1708
2	18713374	950	1690
2	18925195	960	1699
2	19131770	970	1717
2	19355676	980	1721
2	19574937	990	1724
2	19811294	1000	1694
2	20047396	1010	1697
2	20290960	1020	1686
2	20533724	1030	1691
2	20784532	1040	1702
2	21070032	1050	1692
2	21330241	1060	1695
2	21587983	1070	1691
2	21923090	1080	1707
2	22199710	1090	1712
2	22452401	1100	1716
2	22700469	1110	1693
2	22919356	1120	1687
2	23162966	1130	1703
2	23492990	1140	1711
3	1167903	150.256240832	33.407508305
3	1168739	150.338836984	52.922172795
3	1171040	150.561489718	116.717373612
3	1173021	150.727268838	109.564987024
3	1173878	150.801354048	3.070177301
3	1174527	150.861331919	142.490021842
3	1179782	151.267182053	197.636918326
3	1181734	151.434854928	13.015209724
3	1183195	151.566999227	3.639708988
3	1188756	152.107589504	20.122304059
3	1191941	152.4174779	195.901412047
3	1193964	152.615379043	163.841562245
3	1196728	152.883153137	16.773890979
3	1197260	152.946888478	46.194132486
3	1199371	153.192070291	195.741839223
3	1199728	153.242585335	199.9734453
3	1200389	153.325036569	22.021931365
3	1200787	153.370257106	25.385614295
3	1200925	153.388897647	21.30636477
3	1201371	153.435065676	56.475512923
3	1201852	153.488943009	26.210696853
3	1201872	153.490636436	21.922399922
3	1204316	153.734628576	111.154281847
3	1204329	153.73535345	91.936484242
3	1208503	154.065585133	40.948841633
3	1209599	154.142874614	212.555312274
3	1210205	154.188189889	47.786468938
3	1210252	154.19048938	10.38176697
3	1216504	154.687882725	3.593247839
3	1217991	154.869398804	71.101939641
3	1218119	154.883259043	124.381989107
3	1218137	154.88411625	125.745165767
3	1220635	155.082225302	61.55136208
3	1221625	155.169712502	46.239409176
3	1223640	155.35259109	34.724381306
3	1225702	155.537080943	3.065107356
3	1228956	155.782641335	10.763510815
3	1229573	155.838066219	31.513503794
3	1234432	156.248765811	120.863139534
3	1236036	156.37211524	167.185400668
3	1238429	156.529411725	58.400191559
3	1244821	157.090280097	52.555663603
3	1244884	157.09476951	84.457206305
3	1247965	157.343666831	16.581164275
3	1248935	157.426092026	628.498035546
3	1249605	157.471238974	310.213057417
3	1252190	157.639045941	172.439188546
3	1252589	157.665864885	40.717718053
3	1258573	158.038787807	1.792843437
3	1262933	158.278610301	59.341396711
3	1264399	158.38608706	147.102755696
3	1265795	158.49499137	27.962357437
3	1268353	158.679524472	47.798282906
3	1272015	158.925573567	104.272666051
3	1273054	159.012439104	10.589023968
3	1278255	159.351937714	65.404356251
3	1285945	159.952787295	74.460906324
3	1287669	160.13960783	210.679212587
3	1288745	160.271783073	73.514458549
3	1296907	161.060253217	15.499018786
3	1297338	161.100620909	108.092289117
3	1298915	161.286381161	6.067430017
3	1308211	162.132741111	114.963183306
3	1309611	162.251755558	7.242486267
3	1310038	162.287302023	50.765712734
3	1310461	162.331163974	91.668789489
3	1311463	162.430939031	70.66440435
3	1311551	162.43927643	20.582708014
3	1316545	162.97811493	261.087179785
3	1317120	163.033779866	100.393570448
3	1317149	163.035554591	60.458121833
3	1317461	163.063057169	123.637925139
3	1318741	163.177582977	38.861041436
3	1318912	163.194111592	166.759340356
3	1325839	163.772545518	159.903695618
3	1326733	163.851202535	85.511945415
3	1326825	163.858816016	32.800172398
3	1327839	163.960796353	305.228165688
3	1333007	164.405382955	84.124915124
3	1334720	164.60405252	36.114228008
3	1338401	164.942325064	25.372370383
3	1341406	165.254870641	24.806153794
3	1341639	165.280222567	96.214274983
3	1341769	165.297491193	155.927669207
3	1343491	165.485125627	35.06335739
3	1344178	165.560836667	35.595884277
3	1345052	165.650076615	54.237969372
3	1346600	165.768112907	60.295142941
3	1347210	165.811483349	181.197015936
3	1347508	165.829985938	9.648072074
3	1351496	166.126562838	168.071824458
3	1357454	166.694494976	12.498696506
3	1358728	166.897566672	71.531994033
3	1359880	167.043573001	44.3334396
3	1364784	167.497984399	49.425466873
3	1370479	167.951651992	89.288920574
3	1372129	168.140539859	52.476044407
3	1372985	168.266595338	115.281827436
3	1373525	168.366417387	85.69881434
3	1373682	168.402773634	48.305302426
3	1373864	168.428263032	79.598163985
3	1378192	168.858011143	104.553673315
3	1381735	169.14488973	144.932086863
3	1386139	169.492813337	166.515472737
3	1386166	169.495191276	65.706238946
3	1387589	169.657657272	123.208489128
3	1393213	170.311420037	205.841752293
3	1394125	170.412116011	255.488078974
3	1394841	170.484449491	154.414353966
3	1396635	170.664271016	50.715657656
3	1396675	170.668911235	8.819557101
3	1397167	170.739464351	69.433630471
3	1398236	170.857187761	180.58434878
3	1399202	170.954406996	13.802708975
3	1399770	170.994314256	72.28332517
3	1399955	171.012664414	18.625125189
3	1409863	171.664367414	61.279283357
3	1411745	171.831277616	1.720769314
3	1412218	171.875329607	41.527764679
3	1416527	172.295866037	78.75840477
3	1417956	172.422804686	107.951307207
3	1418131	172.438303598	168.847782802
3	1419396	172.557300193	123.684226308
3	1419824	172.595935171	228.82499483
3	1422300	172.820542693	186.091077845
3	1430717	173.769587844	38.946795931
3	1432543	173.944715878	3.466470256
3	1434371	174.110010852	7.370540393
3	1437495	174.372336499	162.903774878
3	1438309	174.434507785	4.35506413
3	1439805	174.549174256	124.78002797
3	1440411	174.586830602	57.475054236
3	1441807	174.70176337	33.848806089
3	1442838	174.789788358	65.359995779
3	1446084	175.077711889	30.268758653
3	1448167	175.260752491	43.434565594
3	1448337	175.270900325	25.189798469
3	1449726	175.386856516	27.808581957
3	1451496	175.532899166	126.268844202
3	1451963	175.576886179	13.086293577
3	1452251	175.599559877	111.651857355
3	1452630	175.623860818	272.433127382
3	1454038	175.780791171	135.445892728
3	1454928	175.869641321	2.087734782
3	1455083	175.892665622	74.137367788
3	1455359	175.9177406	230.674393896
3	1456550	176.012847797	61.999519512
3	1456695	176.024055894	60.836552157
3	1457575	176.100569657	88.055828677
3	1458671	176.192147472	7.281919012
3	1461227	176.364328014	4.262365453
3	1461692	176.387575459	257.579653775
3	1466807	176.807192385	70.067104215
3	1467015	176.821234937	38.363390876
3	1471709	177.173888748	14.675420212
3	1474744	177.531057495	59.880669892
3	1478081	177.808629388	256.079391476
3	1480191	177.972653715	83.844902423
3	1481077	178.033420381	54.485712814
3	1482046	178.12143798	326.167140563
3	1485231	178.383503933	37.603777563
3	1486787	178.494714265	37.673757815
3	1491230	178.821027703	11.658816392
3	1495372	179.171089164	99.996049438
3	1495616	179.19092688	88.786141043
3	1497192	179.366451667	14.843375808
3	1499325	179.536783377	67.00098435
3	1500106	179.613422885	108.990896701
3	1503424	179.919933243	93.067355662
3	1503917	179.965902614	37.384632039
3	1507537	180.294383092	316.461080257
3	1508123	180.351130483	62.74855598
3	1509983	180.519252317	201.022304984
3	1511981	180.7291385	199.121564049
3	1513489	180.869515973	67.570231576
3	1516866	181.097236816	55.283837065
3	1522855	181.562625829	80.339176266
3	1524656	181.705821629	112.039111935
3	1528438	181.920190066	98.513466614
3	1533267	182.294980637	164.428785623
3	1533836	182.352506436	358.46550474
3	1540448	182.814262627	188.032201359
3	1542008	182.933458962	127.715230808
3	1543640	183.082213767	152.134336504
3	1544296	183.143260836	0.850902245
3	1548380	183.444743748	4.699096005
3	1549017	183.495068321	116.230792555
3	1551352	183.70490604	40.751246115
3	1554476	184.027596197	122.613221223
3	1559226	184.370187884	226.197856714
3	1561113	184.502687486	236.875534529
3	1561266	184.513139138	25.195539875
3	1561346	184.518224523	88.709960908
3	1563469	184.71223166	11.113056405
3	1563916	184.744628701	326.891808968
3	1563929	184.744882369	71.463418737
3	1564982	184.840991811	55.480806657
3	1567225	184.994631192	166.421483498
3	1569574	185.180412057	6.841571975
3	1569626	185.184685689	148.32901983
3	1571334	185.341739324	209.433538375
3	1574395	185.588738932	1.222586257
3	1574619	185.609316785	378.91431362
3	1575145	185.644092727	23.137143963
3	1577046	185.764703788	12.392582352
3	1582464	186.184521103	79.770992964
3	1582889	186.225079603	168.41037985
3	1583386	186.262966628	0.198581253
3	1586167	186.5157276	42.064525048
3	1586265	186.527727303	148.855188667
3	1596470	187.371756578	198.336743955
3	1602348	187.84166619	19.592934393
3	1603015	187.901581819	146.638685085
3	1605666	188.096309566	137.434301442
3	1605836	188.106403989	82.677292859
3	1606351	188.145907984	39.216128962
3	1606368	188.146564618	32.447769692
3	1606405	188.148184944	2.710202146
3	1608112	188.297920653	96.237505577
3	1609573	188.408046714	47.555279921
3	1612533	188.546382861	66.831383604
3	1613907	188.616066387	33.124602656
3	1616181	188.758641355	341.569919928
3	1616834	188.801723079	186.767786131
3	1619388	188.992189129	109.92458562
3	1623825	189.393131189	506.188295011
3	1624072	189.421478811	304.262748805
3	1629150	189.910660586	201.750080241
3	1631120	190.068999918	38.187075287
3	1634432	190.354491472	74.28516954
3	1636316	190.533046135	127.123785706
3	1636718	190.574329488	112.354439588
3	1641615	190.910074715	17.155019368
3	1647495	191.378332953	125.964117062
3	1650037	191.565683421	0.925782377
3	1650728	191.619348049	448.729841123
3	1652856	191.788210487	48.414363548
3	1653023	191.80165487	7.780953872
3	1655231	191.961833418	21.574360841
3	1655330	191.967176755	18.425292762
3	1660491	192.387616056	83.101241084
3	1662282	192.499402784	3.089900872
3	1665743	192.788618141	18.071867416
3	1666039	192.827998074	29.445667641
3	1672976	193.548623286	31.812074075
3	1677741	193.910415872	300.292398362
3	1683434	194.368515347	85.184702875
3	1684375	194.431723497	50.045323635
3	1691537	194.88207698	155.258967229
3	1695006	195.168443925	54.900967808
3	1695022	195.169350225	5.081868402
3	1695067	195.171852349	89.302688957
3	1695949	195.234657027	50.049560991
3	1696419	195.260667709	20.235177858
3	1704571	195.802221105	8.106526063
3	1705390	195.871783703	257.616282422
3	1706762	195.98775858	175.927482275
3	1712197	196.554104824	155.596977415
3	1718230	197.124053231	16.529985076
3	1722466	197.557523126	25.795933475
3	1726717	198.007152553	227.219925329
3	1732681	198.746585838	133.801414818
3	1734215	198.930640764	10.358245642
3	1734575	198.974230375	1.363014874
3	1738222	199.365616463	40.437679864
3	1738520	199.387339215	54.954001988
3	1741482	199.633782512	43.810642974
3	1743294	199.744872935	25.418092068
3	1743867	199.798860325	395.324857061
3	1748585	200.304365841	49.198500896
3	1750329	200.484861243	162.513518384
3	1751268	200.585114308	23.012576815
3	1756398	201.011785787	73.410696845
3	1756757	201.040481868	47.159572045
3	1758975	201.22633202	65.434220976
3	1763781	201.732574966	95.792994148
3	1766959	201.956449601	72.798995684
3	1770619	202.237603707	12.793678262
3	1771940	202.344237296	1.956615808
3	1771973	202.34703815	86.949482037
3	1773509	202.469846066	86.661294087
3	1774387	202.54967307	93.090298092
3	1776047	202.688410798	142.197292801
3	1776962	202.741212678	32.470079197
3	1778929	202.893887071	37.506194311
3	1781203	203.083122626	3.235680464
3	1786389	203.435730867	67.28063188
3	1786760	203.472586301	27.236541604
3	1791614	203.862602967	53.090061977
3	1791788	203.876309956	75.388545018
3	1791931	203.88166407	179.464447393
3	1793021	203.970214312	21.871709819
3	1795447	204.176086408	37.348049019
3	1795947	204.216097572	41.840462814
3	1796541	204.257545691	87.609618922
3	1797819	204.370034618	57.680318575
3	1802344	204.701680203	12.603364862
3	1806261	204.901167915	379.402378308
3	1813513	205.409822088	307.972826129
3	1818431	205.74040999	43.887183914
3	1822619	206.043145029	65.43903185
3	1823464	206.099956679	19.519619523
3	1823570	206.107886608	0.637078984
3	1824510	206.180060198	127.532914388
3	1832334	206.673694385	82.708768149
3	1840793	207.362091718	105.777986502
3	1842696	207.570143054	23.209406032
3	1845357	207.786612378	19.188334456
3	1845922	207.828021121	2.905460639
3	1855594	208.468570683	33.903782766
3	1858227	208.604596859	49.257881144
3	1858874	208.637272831	42.433827176
3	1859537	208.697472727	13.591949976
3	1860536	208.763419462	135.402491688
3	1861016	208.788741342	94.369546091
3	1867489	209.242947459	118.239610112
3	1869046	209.345211379	279.027345842
3	1871261	209.485340348	55.337688028
3	1873863	209.632274474	102.561572364
3	1874881	209.68697419	41.861054247
3	1880384	209.987883409	3.365369133
3	1882978	210.158528315	37.217279794
3	1885832	210.421737918	346.375611374
3	1886186	210.46211684	157.963494471
3	1889070	210.67365077	36.721103817
3	1890073	210.762759962	17.848359463
3	1891117	210.841784908	125.589348434
3	1892270	210.924905672	30.318555022
3	1901931	211.855870853	8.805354217
3	1903812	212.021280212	47.228096349
3	1904238	212.062573641	444.722301006
3	1904800	212.123159955	182.364050053
3	1908198	212.418683804	72.403952837
3	1909091	212.499475997	64.490208148
3	1914209	212.953297409	75.862012404
3	1919006	213.289480794	7.739415091
3	1920712	213.441456061	68.480421697
3	1921508	213.501364003	57.125748287
3	1922762	213.610974059	0.973050593
3	1922878	213.622270257	19.535528617
3	1929966	214.123471945	30.018780724
3	1934358	214.518342707	101.82175788
3	1934660	214.543657319	96.850962696
3	1938712	214.795948025	63.374937896
3	1938773	214.799063606	231.27153454
3	1939679	214.892655094	64.79278437
3	1944541	215.317300408	18.03219199
3	1945884	215.39640395	86.043532097
3	1952733	215.766294664	27.144401127
3	1953565	215.82311601	25.045821505
3	1954236	215.861229471	2.612229811
3	1955350	215.946418541	1.647743066
3	1957380	216.09071883	99.698301571
3	1958837	216.195773272	152.466724371
3	1963325	216.590646703	46.989964093
3	1965660	216.825436244	206.276188707
3	1969365	217.098657519	80.879012627
3	1977624	217.637609292	77.211142905
3	1977928	217.661533769	31.776221767
3	1979821	217.79781551	167.15046242
3	1981285	217.886969043	301.741488974
3	1982178	217.941070726	9.645348049
3	1982274	217.950041269	38.127043328
3	1983388	218.028240008	58.100865545
3	1983965	218.084207673	123.721352712
3	1984560	218.136439524	17.976408817
3	1988186	218.372250827	16.093569742
3	1989100	218.429618665	217.672028832
3	1989692	218.467942822	157.413987823
3	1991241	218.582853225	14.351184064
3	1993167	218.732376226	20.617780846
3	1998226	219.023495475	488.349899034
3	2009395	219.74391888	74.920677312
3	2010996	219.854390749	97.616918519
3	2011201	219.870989099	107.961650846
3	2013757	220.137928567	193.73308073
3	2017158	220.339535493	24.977914324
3	2019970	220.600188736	67.716479623
3	2020497	220.638208519	205.381347716
3	2021413	220.754342238	70.129610853
3	2021554	220.772552266	40.731964943
3	2022879	220.882989937	45.444842977
3	2025799	221.063083614	13.02182262
3	2026366	221.103672697	210.931403762
3	2026601	221.125400427	42.029913923
3	2030045	221.344942118	72.05280924
3	2031317	221.428803091	189.966214686
3	2031815	221.463523958	8.451752501
3	2032009	221.477385902	118.355059481
3	2039418	221.946743548	197.9642492
3	2044044	222.303636345	81.185001694
3	2044916	222.354025803	371.841538808
3	2048662	222.512286014	144.526204745
3	2050063	222.573540839	304.470918882
3	2054689	222.784741669	140.149326315
3	2066055	223.427418541	203.905283267
3	2069895	223.697676039	103.84068641
3	2071136	223.80081356	41.228295351
3	2078495	224.257754879	69.301141225
3	2079245	224.317455343	152.432395433
3	2081617	224.467022833	102.187318793
3	2086113	224.719643794	4.083977982
3	2089307	224.967588883	74.068150601
3	2089644	224.996212333	94.904186863
3	2094041	225.366401733	95.305342617
3	2094075	225.369956926	14.707304204
3	2094565	225.402140253	71.294390369
3	2095714	225.47586897	104.849221751
3	2102334	225.902987266	217.760953575
3	2102826	225.926531826	67.025356471
3	2106264	226.113420633	139.366560557
3	2107136	226.167923687	47.474837922
3	2108926	226.283462481	70.543317159
3	2109117	226.298309897	38.366012225
3	2109346	226.305828923	54.865929903
3	2113072	226.516177957	34.283972586
3	2113781	226.549197534	186.972789213
3	2116760	226.756028056	64.050157444
3	2123387	227.135331932	114.161552352
3	2123733	227.156847614	85.142627747
3	2129309	227.433206433	110.387805745
3	2133920	227.726445591	73.89389301
3	2134262	227.755136759	27.992697224
3	2135268	227.825063939	72.449975036
3	2140019	228.240718232	363.020704267
3	2140157	228.2569154	322.160324522
3	2140489	228.284089032	40.534880013
3	2141177	228.346343501	14.859655913
3	2142312	228.440526465	86.855954157
3	2142459	228.446819894	102.478525274
3	2142816	228.464582356	105.157089474
3	2145974	228.615261322	6.120955623
3	2146387	228.6561079	128.454026519
3	2149273	228.827406046	30.886941115
3	2151416	228.92906196	64.328042107
3	2155418	229.126528489	58.764367785
3	2158334	229.31542758	16.961802327
3	2160746	229.467311399	88.852871232
3	2161093	229.484367307	61.654596105
3	2161728	229.512408769	108.674693781
3	2163078	229.604909139	27.659864416
3	2163128	229.609036366	39.301997819
3	2163934	229.666917913	34.088729693
3	2164793	229.705028466	91.850442261
3	2168646	229.890822302	14.46922605
3	2168706	229.892317823	96.999979677
3	2171083	230.010009826	107.741342988
3	2178048	230.377916609	3.956120678
3	2182527	230.573284764	80.590217422
3	2187934	230.890026587	82.716754393
3	2189670	230.989275997	177.398080695
3	2194520	231.31464241	26.813258249
3	2199977	231.673474934	169.575265299
3	2204877	231.92689293	95.984568661
3	2211842	232.240487321	571.816450871
3	2219017	232.731479771	232.219236359
3	2219793	232.784376783	97.692101838
3	2221514	232.915304149	46.072871966
3	2230221	233.360650295	250.092408129
3	2234455	233.502837637	99.736982217
3	2237726	233.659517778	26.619261045
3	2238377	233.690903629	18.449819447
3	2240754	233.791743466	259.003157541
3	2242774	233.911617926	43.575285223
3	2242934	233.925001484	202.564974316
3	2243096	233.934929835	119.433680173
3	2249280	234.271910374	72.734621492
3	2255361	234.533970963	164.839348563
3	2256777	234.587518034	122.456952605
3	2261256	234.817880419	42.512992747
3	2262501	234.907786806	41.410468447
3	2263121	234.943609198	76.158242804
3	2270810	235.350223103	38.533106066
3	2274632	235.569170676	107.016286547
3	2284373	236.064971657	106.826459287
3	2285064	236.134294878	186.199671488
3	2287438	236.326590339	134.846338975
3	2287997	236.365538636	14.874067589
3	2290434	236.569566543	59.308499906
3	2292655	236.676178464	11.740128627
3	2303594	237.266264974	11.80574857
3	2311583	237.74307408	42.557773221
3	2321612	238.392888658	150.98234556
3	2321664	238.397451552	160.04132648
3	2323412	238.51213683	101.714272382
3	2324552	238.571701376	14.104316149
3	2325228	238.611510684	1.930810519
3	2328143	238.780894581	62.740462329
3	2332567	239.010169809	186.143164298
3	2333390	239.072915443	130.083742745
3	2337485	239.316879508	127.763662556
3	2340286	239.490369765	19.985729428
3	2340523	239.505462407	80.028546764
3	2341823	239.604009313	118.484043308
3	2341874	239.607616225	94.265298513
3	2346699	240.002341467	34.909811161
3	2347495	240.059629955	115.805028265
3	2348042	240.105454327	8.752181799
3	2350681	240.27122297	55.418273591
3	2354865	240.57207466	49.519569385
3	2359743	240.925048994	418.465031046
3	2364666	241.243572288	13.005323258
3	2374466	241.963347192	17.390049902
3	2381378	242.493583766	61.428027861
3	2385289	242.754802648	41.88898337
3	2385775	242.805679953	115.207446349
3	2386423	242.829751221	124.994938942
3	2387153	242.847786323	14.088244131
3	2396287	243.476298951	39.690452599
3	2400609	243.714329253	192.772978123
3	2402163	243.804899979	120.749233034
3	2403340	243.915493956	69.940533717
3	2405442	244.056049925	7.204468583
3	2407403	244.199565078	46.336093612
3	2412479	244.563408624	125.337459112
3	2413013	244.61224359	177.18673449
3	2413108	244.613744141	30.207852856
3	2414372	244.698584791	9.683961171
3	2418717	244.930621084	6.368461863
3	2427732	245.430877169	92.187925827
3	2430982	245.610354588	6.111994323
3	2434471	245.844727957	174.912456097
3	2437857	246.053275605	38.966199222
3	2439650	246.174564885	56.547138477
3	2440150	246.20515789	4.971899506
3	2445600	246.542952051	281.074488451
3	2450174	246.907339518	39.397018631
3	2452400	247.080418486	177.254663384
3	2460966	247.553659691	60.427115935
3	2461181	247.568121821	106.093493461
3	2467299	248.014293925	167.794412406
3	2469619	248.15658656	89.089216272
3	2470010	248.190874285	92.896615226
3	2470832	248.27489046	42.653581203
3	2471066	248.300927624	53.281562475
3	2471669	248.35537862	300.316356544
3	2473674	248.548491181	64.693188861
3	2474997	248.648905575	5.758029665
3	2479250	248.891691903	440.533776023
3	2481129	248.978942619	80.424632935
3	2487717	249.338573946	72.654081614
3	2493216	249.717196748	76.707965457
3	2494418	249.831084245	64.945829708
3	2495788	249.943776579	264.542209116
3	2502219	250.478138211	50.166138692
3	2504845	250.674960342	110.422941407
3	2505351	250.705711736	53.671526575
3	2505696	250.722974651	95.652857862
3	2507901	250.882584343	13.179053305
3	2511557	251.124586584	243.639167448
3	2515952	251.480718191	14.339700693
3	2517257	251.579351021	73.359099773
3	2523495	252.075193145	23.584361346
3	2528487	252.483078587	8.717844549
3	2534634	253.01947207	118.949486831
3	2536371	253.149667792	0.68978292
3	2536942	253.193582025	13.390612352
3	2537358	253.235748702	30.830571292
3	2539289	253.365278285	72.49578004
3	2542612	253.583946802	66.598827728
3	2544469	253.712118106	17.919731396
3	2547915	253.90866913	63.45877863
3	2555986	254.424669587	43.394464537
3	2556206	254.466475258	179.747518294
3	2556790	254.515402068	95.887341145
3	2558277	254.633943815	62.360837992
3	2558982	254.690789353	119.063591006
3	2562349	254.92696277	36.383171011
3	2577894	255.809117765	133.666103875
3	2578927	255.905058688	110.252176112
3	2581062	256.096284557	141.994519609
3	2583834	256.391674743	61.995248515
3	2593301	256.988675487	4.21736217
3	2596940	257.247799972	346.517727276
3	2597518	257.296792898	38.314417293
3	2599290	257.465238239	8.890422489
3	2599332	257.467781778	86.285364611
3	2604676	257.840104811	261.553298475
3	2606122	257.93389445	53.737047387
3	2609286	258.083126088	135.600430201
3	2617532	258.51631108	209.147194291
3	2617822	258.544026518	32.687505232
3	2621462	258.769026313	85.692310148
3	2625127	258.977388767	67.416822946
3	2629794	259.303966457	124.096153792
3	2631161	259.426744754	176.111354362
3	2635529	259.737338693	16.598938774
3	2636179	259.766816317	49.860509941
3	2645535	260.588179556	476.095425169
3	2646721	260.693392975	11.366372634
3	2647494	260.77803584	28.421974352
3	2647511	260.778439197	194.72306562
3	2656182	261.390681464	79.487283606
3	2656353	261.399219528	14.553216236
3	2657573	261.482726234	64.022905605
3	2660072	261.657430044	1.553654165
3	2661531	261.766192892	71.04640669
3	2662758	261.841923324	65.345521413
3	2673023	262.462045789	230.793624416
3	2673439	262.49425333	19.030604235
3	2674648	262.593056994	84.826680983
3	2674732	262.593397849	141.481276161
3	2677222	262.726292062	39.031447594
3	2679747	262.867009453	37.366979439
3	2682491	263.012260076	207.700183987
3	2684518	263.170529478	33.59466246
3	2686611	263.303300787	8.86471664
3	2692839	263.693935734	10.110419765
3	2694786	263.811128399	153.084134533
3	2695862	263.886457331	0.411528746
3	2699965	264.132671456	40.174719997
3	2702088	264.270626234	48.777262826
3	2708284	264.508664081	9.133824032
3	2717015	264.90233508	9.44914285
3	2721565	265.201381574	26.670916537
3	2722641	265.306789711	187.478578967
3	2723625	265.379546819	170.827753358
3	2725456	265.503373446	58.232847767
3	2726138	265.536180055	412.029696782
3	2732410	265.917247419	102.378704287
3	2736287	266.075176218	14.730860305
3	2740986	266.301319905	6.404351807
3	2748466	266.708909699	64.003581799
3	2750136	266.818319245	21.035020539
3	2751188	266.876290058	17.420238504
3	2757975	267.385606888	29.058125589
3	2758336	267.420905207	66.740867524
3	2758884	267.472117645	286.493789797
3	2759941	267.558699081	136.984685346
3	2768828	267.92755577	171.159680208
3	2771352	268.034458393	106.09511446
3	2775945	268.295955671	1.927659033
3	2777503	268.394481672	79.039156197
3	2781307	268.658886108	28.312852484
3	2782643	268.747956792	73.225135088
3	2783043	268.767817951	17.172416774
3	2785038	268.884369007	239.827995878
3	2789636	269.089783412	0.442253948
3	2790955	269.161287159	38.411136562
3	2791091	269.171695742	74.069029795
3	2793660	269.315844458	80.806734671
3	2800959	269.652131309	33.214115616
3	2810903	270.253009207	38.175657884
3	2811834	270.322856203	640.326317432
3	2818648	270.695235011	264.742863337
3	2821115	270.828940201	25.593646607
3	2826535	271.02436943	38.674210067
3	2833801	271.424778308	31.434258396
3	2835281	271.557636361	18.133014971
3	2839868	271.929552177	201.866375992
3	2840338	271.982025865	178.725108991
3	2844146	272.266586109	77.26163716
3	2849508	272.530918829	33.429380485
3	2850351	272.57153116	91.912521462
3	2853023	272.651428928	80.85743274
3	2854433	272.734205683	81.907258229
3	2854576	272.747690019	30.46391894
3	2857556	272.928272771	61.359971437
3	2860825	273.21934426	90.531034178
3	2861327	273.256278634	296.329726477
3	2862749	273.362008977	55.491503695
3	2862787	273.363985109	123.969808061
3	2870548	273.928265828	119.552550741
3	2874289	274.088831048	20.874394374
3	2875394	274.15199345	9.057726053
3	2879714	274.313349362	38.782158574
3	2882209	274.39959004	1.451444357
3	2882649	274.410954927	51.41244264
3	2884174	274.514780183	160.724163546
3	2887600	274.721878662	79.996954324
3	2890719	274.884214212	74.106192547
3	2891727	274.961823263	193.884585252
3	2895577	275.245120624	26.984706756
3	2895606	275.249287007	46.686434356
3	2902042	275.593958598	81.892175771
3	2904080	275.708714163	47.279354471
3	2907173	275.869202417	22.664471843
3	2908161	275.914488827	71.455839735
3	2908603	275.962473165	78.607371181
3	2908660	275.964926856	44.093833807
3	2909405	276.018352387	10.18659191
3	2910280	276.069593884	18.993909924
3	2912415	276.173788824	60.354893369
3	2914153	276.255023726	87.786051638
3	2918201	276.427422241	100.123955865
3	2920689	276.587881191	62.731053111
3	2922269	276.666658705	1.838076293
3	2924148	276.791472615	257.969206524
3	2924535	276.814033086	39.50662033
3	2925566	276.883537115	52.661329936
3	2929503	277.037068695	165.094819571
3	2947647	278.047725798	69.870092218
3	2951301	278.214878215	4.881617801
3	2952901	278.286961866	59.126535079
3	2955821	278.428792338	92.402390703
3	2960175	278.653247568	25.423111905
3	2960283	278.659896785	0.36654043
3	2962511	278.745817266	95.118110751
3	2966056	278.905376136	50.456937136
3	2973414	279.267701875	10.450508736
3	2982955	279.760711439	125.502509114
3	2986345	279.953386072	37.70717487
3	2987933	280.064335691	27.742898579
3	2988899	280.133024977	1.947592337
3	2992285	280.316858333	32.792768529
3	2994532	280.427872563	17.939673841
3	2999629	280.672459883	26.536191143
3	3004971	280.974106364	49.87604127
3	3007562	281.14556998	6.743149724
3	3009604	281.257056972	50.729002343
3	3012482	281.409641222	70.707309411
3	3022511	281.958478171	50.821729281
3	3023688	282.024852601	29.291269097
3	3037539	282.849662152	35.00117879
3	3041110	283.104193465	41.89176321
3	3043295	283.246666119	664.839051382