version 2
run KademliaDHT-8-20211202-22:20:23-9356
attr Lifetime 900s
attr configname KademliaDHT
attr datetime 20211202-22:20:23
attr experiment KademliaDHT
attr inifile configs.ini
attr iterationvars $Lifetime=900s
attr iterationvars2 "$Lifetime=900s, $repetition=0"
attr measurement $Lifetime=900s
attr network oversim.underlay.simpleunderlay.SimpleUnderlayNetwork
attr processid 9356
attr repetition 0
attr replication #0
attr resultdir results
attr runnumber 8
attr seedset 8

vector 57  SimpleUnderlayNetwork.globalObserver.globalStatistics  "GlobalNodeList: Number of nodes"  ETV
vector 58  SimpleUnderlayNetwork.globalObserver.globalStatistics  "GlobalDhtTestMap: Number of stored DHT entries"  ETV
vector 59  SimpleUnderlayNetwork.globalObserver.globalStatistics  "Kademlia: Buckets Refreshed Per Task"  ETV
vector 60  SimpleUnderlayNetwork.globalObserver.globalStatistics  "LifetimeChurn: Time between deletes"  ETV
vector 61  SimpleUnderlayNetwork.globalObserver.globalStatistics  "LifetimeChurn: Session Time"  ETV
vector 62  SimpleUnderlayNetwork.globalObserver.globalStatistics  "LifetimeChurn: Time between creates"  ETV
57	1348953	150	510
57	1999199	200	495
57	2666279	250	494
57	3278517	300	494
57	3901716	350	495
57	4502402	400	491
57	5152664	450	493
57	5788341	500	517
57	6441610	550	527
57	7079303	600	515
57	7677447	650	497
57	8291425	700	509
57	8898534	750	513
57	9490666	800	498
57	10024430	850	496
57	10558867	900	484
57	11122098	950	492
57	11699360	1000	506
57	12330419	1050	505
57	12984700	1100	517
58	1348954	150	746
58	1479600	160	835
58	1612181	170	914
58	1751888	180	983
58	1876519	190	1063
58	1999200	200	1143
58	2136569	210	1232
58	2269995	220	1316
58	2398698	230	1378
58	2548313	240	1460
58	2666280	250	1539
58	2785527	260	1619
58	2908475	270	1688
58	3040501	280	1780
58	3151972	290	1847
58	3278518	300	1933
58	3403662	310	2014
58	3526469	320	2089
58	3654557	330	2173
58	3765465	340	2244
58	3901717	350	2315
58	4030226	360	2380
58	4139112	370	2380
58	4263327	380	2382
58	4378367	390	2360
58	4502403	400	2349
58	4635139	410	2347
58	4761342	420	2363
58	4883169	430	2362
58	5017142	440	2359
58	5152665	450	2358
58	5279228	460	2342
58	5400213	470	2349
58	5516600	480	2353
58	5648920	490	2368
58	5788342	500	2360
58	5925834	510	2349
58	6059500	520	2353
58	6189213	530	2369
58	6311219	540	2357
58	6441611	550	2367
58	6579684	560	2375
58	6707627	570	2384
58	6849912	580	2385
58	6959939	590	2400
58	7079304	600	2379
58	7206814	610	2389
58	7335849	620	2406
58	7448298	630	2396
58	7568997	640	2409
58	7677448	650	2419
58	7798591	660	2409
58	7926205	670	2424
58	8054330	680	2426
58	8173007	690	2431
58	8291426	700	2434
58	8410673	710	2426
58	8519199	720	2425
58	8656879	730	2437
58	8787384	740	2451
58	8898535	750	2437
58	9010269	760	2453
58	9110165	770	2444
58	9237261	780	2445
58	9363408	790	2433
58	9490667	800	2448
58	9597595	810	2452
58	9691831	820	2438
58	9802105	830	2425
58	9912960	840	2435
58	10024431	850	2431
58	10132366	860	2420
58	10247736	870	2429
58	10355566	880	2400
58	10460357	890	2399
58	10558868	900	2401
58	10667611	910	2410
58	10785631	920	2391
58	10908299	930	2388
58	11017804	940	2387
58	11122099	950	2379
58	11238694	960	2380
58	11351823	970	2383
58	11466389	980	2376
58	11589919	990	2380
58	11699361	1000	2382
58	11822478	1010	2379
58	11949482	1020	2377
58	12079153	1030	2377
58	12206584	1040	2375
58	12330420	1050	2386
58	12449166	1060	2374
58	12573340	1070	2371
58	12715382	1080	2387
58	12842153	1090	2387
58	12984701	1100	2380
58	13104255	1110	2365
58	13250360	1120	2385
58	13384889	1130	2406
58	13467688	1140	2394
59	1350244	150.108149261	0
59	1351325	150.191448869	1
59	1351918	150.239555358	0
59	1354109	150.445025995	0
59	1354680	150.51273919	0
59	1355917	150.627863599	0
59	1356766	150.690045865	0
59	1358937	150.836594724	0
59	1360275	150.921935964	0
59	1364212	151.143070317	0
59	1376159	151.903596389	0
59	1383546	152.652916509	0
59	1410781	154.741643138	0
59	1411729	154.805502747	0
59	1419015	155.238979836	6
59	1419283	155.252521204	0
59	1451035	157.88526279	0
59	1476517	159.836175412	1
59	1491933	160.866991103	0
59	1494142	161.000449363	2
59	1504389	161.630933075	4
59	1535738	164.337098529	2
59	1545528	165.212870516	0
59	1553802	165.977539428	0
59	1554406	166.029224855	1
59	1560318	166.403937361	0
59	1575001	167.494872306	0
59	1595355	168.974498445	0
59	1605728	169.647154899	2
59	1617884	170.413656105	2
59	1634494	171.426846288	1
59	1635236	171.456187573	0
59	1651710	172.482524612	0
59	1653789	172.716819179	1
59	1666092	173.741139813	0
59	1672865	174.227598433	0
59	1677541	174.729769152	0
59	1689463	175.867122082	2
59	1696650	176.383161828	0
59	1707976	177.013802854	4
59	1709651	177.112011115	0
59	1711154	177.207611832	0
59	1712311	177.290357011	5
59	1759092	180.529183124	0
59	1773563	181.553890487	0
59	1789893	182.605806156	2
59	1815551	184.39444407	0
59	1818074	184.680284354	0
59	1825034	185.447086687	4
59	1839806	186.711586841	0
59	1841270	186.815327308	4
59	1868456	189.271282189	0
59	1879690	190.238638655	2
59	1902633	192.206566133	4
59	1949859	195.842457839	0
59	1961640	196.756250471	0
59	1999403	200.016791202	0
59	2005381	200.56232817	0
59	2010543	201.035917126	0
59	2015029	201.377912224	0
59	2020659	201.877710559	1
59	2021713	201.996649057	0
59	2021732	201.998529526	0
59	2022319	202.062185181	0
59	2024171	202.221887638	0
59	2025997	202.374777364	0
59	2027874	202.547846765	0
59	2030175	202.773970657	0
59	2031640	202.897970375	0
59	2031889	202.921692304	0
59	2034433	203.157313846	0
59	2034741	203.190100604	0
59	2036077	203.316020242	0
59	2036707	203.37226302	0
59	2036739	203.374997459	0
59	2037562	203.452549184	0
59	2037718	203.468696871	0
59	2038300	203.519374554	0
59	2038799	203.562753686	0
59	2039460	203.628880621	0
59	2039785	203.668504455	0
59	2039835	203.672727114	0
59	2041771	203.871600965	0
59	2043337	204.018755224	0
59	2043664	204.049862929	0
59	2043754	204.059632033	0
59	2044305	204.120029751	0
59	2046341	204.313393908	2
59	2046546	204.329465545	0
59	2047986	204.454820095	0
59	2048285	204.479676235	0
59	2051191	204.717821988	0
59	2051895	204.764860584	0
59	2055234	204.972154765	0
59	2062784	205.359722264	0
59	2065551	205.523369867	0
59	2066090	205.552747075	0
59	2069787	205.756444264	0
59	2070193	205.778160344	0
59	2072979	205.902735051	0
59	2077401	206.07971345	0
59	2084794	206.384039661	0
59	2085656	206.416967742	0
59	2086624	206.454826672	0
59	2087768	206.505881871	0
59	2089151	206.571779799	0
59	2089373	206.582776304	0
59	2089842	206.609009266	0
59	2090276	206.630466522	0
59	2093470	206.814133726	0
59	2093680	206.829433704	0
59	2096729	207.048129569	2
59	2098056	207.154817448	0
59	2098643	207.197853067	0
59	2098987	207.22000779	0
59	2099465	207.251719582	0
59	2101001	207.350050682	0
59	2101506	207.381547871	4
59	2108334	207.793404287	0
59	2111543	207.943471098	0
59	2112418	207.986775392	0
59	2112432	207.988195867	1
59	2113392	208.039638828	0
59	2114982	208.13331674	0
59	2116942	208.271920481	0
59	2117016	208.280463439	0
59	2118754	208.458058532	0
59	2119271	208.526507638	0
59	2119274	208.526721502	0
59	2121160	208.756911266	0
59	2122761	208.921162865	0
59	2122925	208.935593367	0
59	2122929	208.93582819	0
59	2126486	209.25806736	0
59	2127562	209.34412312	0
59	2127846	209.366546163	0
59	2128155	209.392909613	0
59	2129137	209.479239427	2
59	2129315	209.49195401	0
59	2130467	209.576482871	0
59	2131280	209.6277692	0
59	2133433	209.779887661	0
59	2141339	210.329615098	0
59	2144269	210.516684655	0
59	2144655	210.540181252	0
59	2147534	210.68762029	0
59	2148829	210.752537303	0
59	2149452	210.782582152	0
59	2149659	210.790098421	0
59	2151937	210.914503004	0
59	2153864	211.034149568	0
59	2155210	211.116730464	0
59	2157784	211.287486184	0
59	2160697	211.533132992	0
59	2160894	211.550666981	0
59	2161532	211.600130426	0
59	2161744	211.619159868	0
59	2161977	211.632853399	0
59	2164625	211.785377547	0
59	2166226	211.862067331	0
59	2168372	211.980052866	0
59	2168415	211.982273821	0
59	2169077	212.023371675	0
59	2170296	212.108772744	0
59	2170729	212.137344256	0
59	2174521	212.417200229	0
59	2175892	212.527749614	0
59	2177150	212.609278859	0
59	2180254	212.833879054	0
59	2183975	213.102817893	0
59	2185053	213.195922938	2
59	2185870	213.262653182	0
59	2190473	213.628333383	0
59	2190738	213.647713083	0
59	2191264	213.690605152	0
59	2191275	213.692160609	0
59	2191498	213.71040229	0
59	2192019	213.754645747	0
59	2192056	213.758449016	0
59	2194813	214.025904555	0
59	2198148	214.239033424	0
59	2198778	214.275075125	0
59	2199165	214.295417211	1
59	2200355	214.366800385	0
59	2200815	214.391644556	0
59	2200834	214.392474852	0
59	2205581	214.69300158	0
59	2206144	214.731505859	0
59	2206673	214.771227483	0
59	2206674	214.771376665	0
59	2206726	214.77462817	0
59	2207353	214.820699	0
59	2207834	214.861738259	1
59	2210166	215.090621691	2
59	2212774	215.450381027	0
59	2213260	215.523182636	0
59	2213376	215.538548365	0
59	2214150	215.632456636	0
59	2214198	215.638405957	0
59	2219696	216.094096737	0
59	2221413	216.208671465	0
59	2222974	216.333476428	0
59	2223784	216.38936645	0
59	2225806	216.533943735	0
59	2226247	216.563467183	0
59	2230902	216.841125222	0
59	2231520	216.884268448	0
59	2233250	217.021059757	0
59	2234082	217.088011701	0
59	2234605	217.124876218	0
59	2235340	217.185447241	0
59	2237195	217.333754611	0
59	2237589	217.357492465	0
59	2238510	217.429919541	0
59	2238775	217.44828063	0
59	2239101	217.479416259	0
59	2239620	217.524158363	0
59	2239925	217.548453202	0
59	2243674	217.810062556	0
59	2245203	217.907546986	0
59	2248139	218.099053344	0
59	2249425	218.191275239	0
59	2249741	218.210678631	0
59	2249932	218.224082507	0
59	2250041	218.231285272	1
59	2251184	218.304605227	0
59	2252739	218.393957271	6
59	2252980	218.404356819	0
59	2256182	218.58106295	0
59	2256289	218.586760491	0
59	2258307	218.716619185	0
59	2261038	218.924865006	0
59	2261556	218.968272891	0
59	2262517	219.044861362	0
59	2262805	219.068243215	0
59	2264763	219.27829686	0
59	2265621	219.403289852	0
59	2266726	219.561997644	0
59	2267165	219.629693927	0
59	2267621	219.697931064	0
59	2267894	219.751392031	0
59	2271853	220.164692935	2
59	2272593	220.217791152	0
59	2273556	220.278060652	0
59	2275460	220.391961244	0
59	2276608	220.457343392	0
59	2277293	220.496630438	3
59	2278275	220.551466388	0
59	2280435	220.682683842	0
59	2280572	220.691231913	0
59	2280943	220.71830228	0
59	2282324	220.824732648	0
59	2288470	221.336524461	0
59	2291072	221.545553831	0
59	2291223	221.560677591	0
59	2292211	221.641666888	0
59	2292236	221.643422308	0
59	2294565	221.800882223	0
59	2295049	221.83159785	0
59	2295656	221.873554483	0
59	2297986	222.014924317	0
59	2301467	222.241518194	0
59	2301564	222.247428864	0
59	2301811	222.261396414	0
59	2303328	222.384176351	1
59	2304324	222.480186381	2
59	2305710	222.620781716	0
59	2305875	222.634056366	0
59	2306693	222.719191756	0
59	2309013	222.909479771	0
59	2311608	223.088235119	0
59	2312590	223.14902167	0
59	2314086	223.257820724	4
59	2314802	223.309187143	0
59	2314923	223.320985908	0
59	2315193	223.346008924	0
59	2316669	223.453507098	3
59	2318289	223.566030821	0
59	2318669	223.593106824	0
59	2318829	223.608875448	0
59	2320375	223.738337709	0
59	2323435	224.000647077	0
59	2324580	224.094377509	1
59	2327606	224.324899879	0
59	2330452	224.5408031	5
59	2331360	224.596351624	2
59	2332366	224.659540272	0
59	2332994	224.69864788	0
59	2333187	224.712433906	0
59	2333964	224.769764308	0
59	2336318	224.944783586	0
59	2338601	225.191881132	0
59	2338948	225.23158107	0
59	2340111	225.354901514	0
59	2341392	225.466791411	0
59	2341937	225.511741331	0
59	2345323	225.757949377	0
59	2347424	225.903885843	0
59	2347920	225.938621315	0
59	2349164	226.028057907	0
59	2349259	226.033171931	0
59	2350579	226.129702161	0
59	2351924	226.22891538	0
59	2356384	226.666442981	0
59	2357855	226.836363418	2
59	2359193	226.973204463	0
59	2359215	226.974674149	0
59	2359877	227.03350208	2
59	2363308	227.264526892	0
59	2366670	227.507780651	0
59	2367818	227.593983211	0
59	2369082	227.685341402	0
59	2369913	227.752919184	0
59	2369976	227.757774374	0
59	2371999	227.905584409	5
59	2373363	228.006010812	0
59	2375562	228.151236283	0
59	2376191	228.195017084	0
59	2376672	228.228584472	0
59	2376925	228.245409182	0
59	2377734	228.307175689	0
59	2380202	228.488614075	0
59	2381182	228.569698817	0
59	2383009	228.735853977	0
59	2383076	228.740453607	0
59	2383951	228.817104353	0
59	2384535	228.869656855	0
59	2384796	228.892447961	0
59	2385519	228.960530879	0
59	2385694	228.976197981	0
59	2386243	229.028159821	0
59	2387112	229.116782538	0
59	2388004	229.224627863	0
59	2392734	229.59912702	0
59	2394690	229.718913635	0
59	2396338	229.817633238	0
59	2397884	229.925677635	0
59	2398155	229.949823065	0
59	2398270	229.959361944	0
59	2399244	230.049236218	0
59	2400945	230.237228907	0
59	2402537	230.385599383	7
59	2403763	230.457491626	0
59	2404951	230.528412705	0
59	2408642	230.729109427	0
59	2410339	230.814877387	0
59	2415283	231.054085335	0
59	2416553	231.122066897	0
59	2419659	231.308752966	0
59	2419805	231.31764623	0
59	2421971	231.466495952	0
59	2423728	231.614790548	0
59	2425188	231.767493884	0
59	2425450	231.795329962	0
59	2427953	232.031270924	0
59	2430749	232.25654096	0
59	2433141	232.421703469	0
59	2436257	232.610050808	0
59	2436465	232.624591658	0
59	2437161	232.666675321	0
59	2438603	232.762430342	0
59	2440139	232.852548996	0
59	2440368	232.868332707	0
59	2440615	232.88789879	0
59	2442658	233.017792014	0
59	2444249	233.138607035	0
59	2445567	233.247283253	0
59	2446084	233.298912058	0
59	2446554	233.346320173	0
59	2447269	233.431739227	2
59	2447952	233.506800817	0
59	2452430	233.774656008	0
59	2454852	233.887223069	2
59	2455551	233.920770794	0
59	2455616	233.92223997	3
59	2456005	233.937211356	0
59	2458233	234.03968842	0
59	2464644	234.420185743	0
59	2465655	234.480594639	0
59	2468463	234.64517471	0
59	2470223	234.775986122	0
59	2471034	234.841894649	0
59	2472185	234.934264213	0
59	2473274	235.016820863	0
59	2478061	235.320245824	0
59	2478476	235.346191761	0
59	2484522	235.647107382	0
59	2486061	235.732735315	0
59	2487525	235.828752165	0
59	2487612	235.835380269	0
59	2488736	235.905268547	0
59	2493799	236.29547514	0
59	2494727	236.378963653	3
59	2495827	236.47844659	0
59	2496104	236.501397417	0
59	2496732	236.551703153	0
59	2499654	236.769564826	0
59	2499750	236.775821895	0
59	2501084	236.867673131	0
59	2503891	237.09470616	0
59	2504927	237.16605464	0
59	2505169	237.191845398	3
59	2508265	237.429193031	0
59	2508297	237.431492242	0
59	2509895	237.554064806	3
59	2513672	237.730870736	0
59	2519198	237.941119706	0
59	2519375	237.948898389	2
59	2521920	238.064035498	0
59	2523136	238.123998798	1
59	2523256	238.130513692	0
59	2527331	238.391046166	0
59	2527530	238.407089815	2
59	2528248	238.463286728	0
59	2529573	238.558051651	0
59	2533344	238.898610835	0
59	2534696	239.030901779	0
59	2534852	239.044060141	1
59	2536115	239.167011414	0
59	2536837	239.245077063	0
59	2538249	239.346338767	0
59	2544142	239.692478214	0
59	2545378	239.770269049	0
59	2547086	239.889276652	0
59	2547914	239.963276111	0
59	2549112	240.073637826	0
59	2549954	240.15983748	0
59	2554641	240.683085098	0
59	2554979	240.711076596	0
59	2555162	240.7263319	0
59	2555381	240.745491364	0
59	2555745	240.772735382	0
59	2556039	240.795565	0
59	2560382	241.092676594	0
59	2563473	241.291910599	0
59	2563869	241.316634063	0
59	2564625	241.37149817	1
59	2566980	241.557494085	0
59	2567997	241.684842184	0
59	2568096	241.700398354	0
59	2568152	241.707250581	0
59	2569749	241.92631164	1
59	2570985	242.071782916	0
59	2572492	242.255221152	0
59	2572859	242.301596137	0
59	2580851	242.898862726	0
59	2581703	242.963980514	0
59	2583254	243.06621593	0
59	2583529	243.085854602	0
59	2583906	243.128465245	0
59	2586376	243.359528952	0
59	2588225	243.503456571	0
59	2588863	243.540622649	0
59	2589851	243.606858356	0
59	2590255	243.630592147	0
59	2590493	243.642702356	5
59	2590708	243.652437092	0
59	2594946	243.90297952	0
59	2596573	244.006127203	0
59	2599584	244.226056252	0
59	2602088	244.449760387	0
59	2602869	244.514593758	0
59	2602972	244.525499413	0
59	2603936	244.620458866	0
59	2604188	244.644514819	0
59	2604816	244.728191089	0
59	2604891	244.740650227	0
59	2605009	244.75904389	0
59	2605109	244.776910712	0
59	2606726	245.027475553	0
59	2607332	245.100646995	0
59	2609731	245.300843686	0
59	2610422	245.35867991	0
59	2614632	245.65157457	0
59	2616662	245.796150927	0
59	2617634	245.873486552	0
59	2620696	246.074863691	0
59	2621297	246.110654949	0
59	2621298	246.110672936	0
59	2621352	246.115594864	0
59	2622348	246.183256052	0
59	2623921	246.296282309	0
59	2624786	246.365638207	0
59	2626148	246.482854069	0
59	2627593	246.594859467	0
59	2629797	246.756018734	0
59	2635986	247.256447119	0
59	2637034	247.361926965	0
59	2637704	247.421545117	0
59	2637824	247.433562494	0
59	2639754	247.616889937	0
59	2639757	247.617420226	0
59	2640559	247.700074964	0
59	2640749	247.721580227	0
59	2644847	248.126402863	0
59	2644926	248.134234587	0
59	2646420	248.254316543	0
59	2647904	248.354802443	0
59	2650383	248.503729742	0
59	2650750	248.52712762	0
59	2657214	248.893028294	0
59	2657497	248.917053974	0
59	2657828	248.940638503	1
59	2657956	248.948373945	1
59	2658752	249.008777877	0
59	2658826	249.015366377	0
59	2659787	249.115441016	0
59	2661336	249.293577181	0
59	2661492	249.316105149	0
59	2662008	249.400531314	0
59	2662850	249.561017738	0
59	2665014	249.844039046	0
59	2668363	250.239555358	0
59	2673051	250.627863599	0
59	2673852	250.690045865	0
59	2676291	250.836594724	0
59	2677776	250.921935964	0
59	2681401	251.143070317	0
59	2689460	251.903596389	0
59	2699131	252.652916509	0
59	2702205	252.931194088	3
59	2711321	253.636763483	4
59	2714104	253.871390563	1
59	2721331	254.418271061	3
59	2725228	254.741643138	0
59	2725773	254.805502747	0
59	2729025	255.238979836	0
59	2729139	255.252521204	0
59	2733735	255.578686282	2
59	2738875	255.80527034	1
59	2763096	257.88526279	0
59	2783958	259.836175412	0
59	2794403	260.866991103	0
59	2795998	261.000449363	0
59	2816986	262.918017796	0
59	2817813	263.033343007	1
59	2833736	264.337098529	0
59	2844446	265.212870516	0
59	2854887	265.977539428	0
59	2855599	266.029224855	0
59	2863449	266.592224207	1
59	2865539	266.738395939	4
59	2874568	267.494872306	0
59	2894996	268.974498445	0
59	2902377	269.647154899	0
59	2910048	270.107945853	1
59	2913505	270.413656105	0
59	2928594	271.426846288	0
59	2929038	271.456187573	0
59	2942835	272.482524612	0
59	2945619	272.681688685	1
59	2946174	272.716819179	0
59	2963246	273.741139813	0
59	2964791	273.853839785	4
59	2970371	274.169906394	2
59	2971367	274.227598433	0
59	2978982	274.729769152	0
59	2994009	275.867122082	0
59	3000913	276.383161828	1
59	3007141	277.013802854	0
59	3007950	277.112011115	0
59	3008800	277.207611832	0
59	3009568	277.290357011	0
59	3020125	278.261040897	1
59	3031601	279.107646046	0
59	3042428	280.248835654	0
59	3045310	280.529183124	1
59	3059460	281.553890487	0
59	3066345	282.138350217	0
59	3072517	282.605806156	0
59	3078996	283.185314308	1
59	3090196	283.92207883	2
59	3095142	284.39444407	0
59	3097835	284.680284354	0
59	3105230	285.447086687	0
59	3115322	286.711586841	0
59	3116428	286.815327308	0
59	3143644	289.271282189	0
59	3154477	290.238638655	0
59	3165555	291.118265734	0
59	3191445	293.101527527	0
59	3207222	294.204358165	2
59	3227478	295.842457839	0
59	3238253	296.756250471	0
59	3239677	296.88465047	0
59	3260201	298.479413689	4
59	3278711	300.016791202	1
59	3286062	300.56232817	0
59	3291079	301.035917126	0
59	3295722	301.377912224	0
59	3302782	301.877710559	0
59	3304074	301.996649057	0
59	3304096	301.998529526	0
59	3304705	302.062185181	0
59	3305861	302.188964411	4
59	3308036	302.374777364	0
59	3310627	302.547846765	2
59	3314494	302.773970657	0
59	3316677	302.897970375	0
59	3317070	302.921692304	0
59	3320997	303.157313846	0
59	3321677	303.190100604	0
59	3324139	303.316020242	0
59	3325270	303.37226302	0
59	3325343	303.374997459	0
59	3326826	303.452549184	4
59	3328181	303.519374554	0
59	3329070	303.562753686	0
59	3330361	303.628880621	0
59	3331086	303.668504455	2
59	3331201	303.672727114	0
59	3334770	303.871600965	0
59	3336889	304.018755224	0
59	3337346	304.049862929	0
59	3337476	304.059632033	0
59	3338292	304.120029751	0
59	3340818	304.313393908	0
59	3341094	304.329465545	0
59	3343514	304.479676235	0
59	3347948	304.764860584	0
59	3350905	304.972154765	0
59	3355837	305.359722264	0
59	3357662	305.523369867	0
59	3358021	305.552747075	0
59	3359855	305.756444264	0
59	3360080	305.778160344	0
59	3360567	305.825538328	2
59	3361392	305.902735051	0
59	3363351	306.07971345	0
59	3367284	306.384039661	0
59	3367725	306.416967742	0
59	3368295	306.454826672	0
59	3368985	306.505881871	0
59	3369910	306.571779799	0
59	3370068	306.582776304	0
59	3370349	306.609009266	0
59	3370602	306.630466522	3
59	3372634	306.814133726	0
59	3372757	306.829433704	0
59	3373817	306.933631668	2
59	3375455	307.048129569	0
59	3376997	307.154817448	0
59	3377600	307.197853067	0
59	3377905	307.22000779	0
59	3378319	307.251719582	0
59	3379855	307.350050682	0
59	3380437	307.381547871	0
59	3387682	307.943471098	0
59	3388021	307.986775392	0
59	3388450	308.039638828	0
59	3389282	308.13331674	0
59	3390166	308.271920481	0
59	3390200	308.280463439	0
59	3390962	308.458058532	0
59	3391263	308.526507638	0
59	3391268	308.526721502	0
59	3392544	308.756911266	0
59	3392835	308.804785376	2
59	3394062	308.935593367	0
59	3394066	308.93582819	0
59	3397185	309.25806736	0
59	3397980	309.34412312	0
59	3398170	309.366546163	0
59	3398420	309.392909613	0
59	3399293	309.479239427	0
59	3399405	309.49195401	0
59	3400084	309.576482871	0
59	3400436	309.6277692	0
59	3401663	309.779887661	1
59	3407372	310.329615098	0
59	3410077	310.516684655	2
59	3410479	310.540181252	0
59	3413071	310.68762029	0
59	3414196	310.752537303	0
59	3414687	310.782582152	0
59	3414821	310.790098421	0
59	3416761	310.914503004	0
59	3418207	311.034149568	0
59	3419225	311.116730464	0
59	3421180	311.287486184	0
59	3423544	311.533132992	0
59	3423702	311.550666981	0
59	3424071	311.600130426	0
59	3424209	311.619159868	0
59	3425484	311.785377547	0
59	3426099	311.862067331	0
59	3426964	311.980052866	0
59	3426984	311.982273821	0
59	3427276	312.023371675	0
59	3427869	312.108772744	0
59	3428107	312.137344256	0
59	3430790	312.417200229	0
59	3431243	312.463431011	1
59	3431902	312.527749614	0
59	3432833	312.609278859	0
59	3436154	312.833879054	0
59	3439960	313.102817893	0
59	3441118	313.195922938	0
59	3441963	313.262653182	0
59	3447321	313.647713083	0
59	3447791	313.690605152	0
59	3447841	313.692160609	0
59	3448015	313.71040229	0
59	3448564	313.754645747	0
59	3448610	313.758449016	0
59	3451616	314.025904555	0
59	3454293	314.239033424	0
59	3454659	314.275075125	0
59	3454975	314.295417211	0
59	3455836	314.366800385	0
59	3456176	314.391644556	2
59	3456197	314.392474852	4
59	3460277	314.69300158	0
59	3460753	314.731505859	0
59	3461215	314.771227483	0
59	3461216	314.771376665	0
59	3461746	314.820699	1
59	3462154	314.861738259	0
59	3464987	315.090621691	0
59	3473141	315.523182636	0
59	3475156	315.632456636	0
59	3482216	316.094096737	0
59	3483737	316.208671465	0
59	3485291	316.333476428	0
59	3485870	316.38936645	0
59	3487355	316.533943735	0
59	3487621	316.563467183	0
59	3490202	316.841125222	0
59	3490703	316.884268448	0
59	3492204	317.021059757	0
59	3492904	317.088011701	0
59	3495814	317.333754611	0
59	3496044	317.357492465	0
59	3496985	317.429919541	3
59	3497260	317.44828063	0
59	3497631	317.479416259	0
59	3498220	317.524158363	0
59	3498547	317.548453202	0
59	3501209	317.810062556	0
59	3501956	317.907546986	1
59	3503052	318.099053344	0
59	3503480	318.191275239	0
59	3503583	318.210678631	0
59	3503657	318.224082507	0
59	3503705	318.231285272	0
59	3504221	318.304605227	3
59	3505035	318.393957271	0
59	3506911	318.58106295	0
59	3506953	318.586760491	0
59	3507171	318.608212248	3
59	3508526	318.716619185	0
59	3511449	318.924865006	0
59	3512023	318.968272891	0
59	3513105	319.044861362	0
59	3513437	319.068243215	0
59	3516078	319.27829686	0
59	3517795	319.403289852	0
59	3519972	319.561997644	0
59	3520946	319.629693927	0
59	3522069	319.697931064	0
59	3522901	319.751392031	0
59	3528599	320.164692935	0
59	3529269	320.217791152	0
59	3529947	320.278060652	0
59	3531366	320.391961244	0
59	3532308	320.457343392	0
59	3532842	320.496630438	0
59	3533634	320.551466388	0
59	3535724	320.682683842	0
59	3535826	320.691231913	0
59	3538230	320.824732648	0
59	3546226	321.336524461	0
59	3549328	321.545553831	0
59	3549579	321.560677591	0
59	3550870	321.641666888	0
59	3550884	321.643422308	4
59	3553622	321.83159785	0
59	3554489	321.897805894	1
59	3556160	322.014924317	0
59	3559461	322.241518194	0
59	3559564	322.247428864	0
59	3559763	322.261396414	0
59	3561085	322.384176351	0
59	3561997	322.480186381	0
59	3563356	322.620781716	0
59	3563497	322.634056366	0
59	3564291	322.719191756	0
59	3565902	322.909479771	0
59	3567400	323.088235119	0
59	3568017	323.14902167	0
59	3569161	323.257820724	0
59	3569733	323.309187143	0
59	3569839	323.320985908	0
59	3570113	323.346008924	0
59	3571322	323.453507098	0
59	3572660	323.566030821	0
59	3572951	323.593106824	0
59	3573137	323.608875448	0
59	3574353	323.738337709	0
59	3576801	324.000647077	0
59	3576939	324.02109364	3
59	3577623	324.094377509	0
59	3579518	324.324899879	0
59	3582293	324.5408031	0
59	3583094	324.596351624	0
59	3583942	324.659540272	0
59	3584427	324.69864788	0
59	3584625	324.712433906	0
59	3585305	324.769764308	0
59	3587921	324.944783586	0
59	3591457	325.191881132	0
59	3593176	325.354901514	0
59	3594339	325.466791411	0
59	3594873	325.511741331	0
59	3598197	325.757949377	0
59	3600490	325.903885843	0
59	3601028	325.938621315	0
59	3602347	326.028057907	0
59	3602432	326.033171931	1
59	3603731	326.129702161	0
59	3604967	326.22891538	0
59	3609293	326.666442981	0
59	3611165	326.836363418	0
59	3611682	326.874844102	1
59	3613178	326.973204463	0
59	3613209	326.974674149	0
59	3618546	327.264526892	0
59	3622605	327.507780651	0
59	3623744	327.593983211	0
59	3624975	327.685341402	0
59	3626020	327.757774374	0
59	3628513	327.905584409	0
59	3630369	328.006010812	0
59	3632885	328.151236283	0
59	3633541	328.195017084	0
59	3634046	328.228584472	0
59	3634287	328.245409182	0
59	3635075	328.307175689	0
59	3637297	328.488614075	0
59	3638178	328.569698817	0
59	3639696	328.740453607	0
59	3640570	328.817104353	0
59	3641227	328.869656855	0
59	3641518	328.892447961	0
59	3643399	329.028159821	0
59	3644835	329.116782538	0
59	3646717	329.224627863	0
59	3651713	329.59912702	2
59	3652837	329.718913635	0
59	3653577	329.817633238	0
59	3654307	329.949823065	0
59	3654366	329.959361944	0
59	3654754	330.049236218	1
59	3655889	330.237228907	0
59	3656874	330.385599383	0
59	3657395	330.457491626	0
59	3657917	330.528412705	0
59	3659721	330.729109427	0
59	3660590	330.814877387	0
59	3662542	331.022587636	2
59	3662829	331.054085335	0
59	3663439	331.122066897	0
59	3665345	331.31764623	0
59	3667136	331.466495952	0
59	3668750	331.614790548	0
59	3670960	331.767493884	0
59	3671416	331.795329962	0
59	3675121	332.031270924	0
59	3678034	332.25654096	0
59	3679636	332.421703469	0
59	3681381	332.610050808	0
59	3681599	332.624591658	0
59	3682097	332.666675321	0
59	3683518	332.762430342	0
59	3685013	332.852548996	0
59	3685290	332.868332707	0
59	3685569	332.88789879	0
59	3686318	332.93192936	2
59	3687692	333.017792014	0
59	3687931	333.031810583	2
59	3689653	333.138607035	0
59	3691275	333.247283253	0
59	3691987	333.298912058	2
59	3692631	333.346320173	0
59	3693664	333.431739227	0
59	3694551	333.506800817	0
59	3697215	333.738420393	1
59	3697609	333.774656008	0
59	3699149	333.887223069	0
59	3699583	333.920770794	0
59	3699810	333.937211356	0
59	3701631	334.03968842	0
59	3708624	334.420185743	0
59	3709512	334.480594639	0
59	3711754	334.64517471	0
59	3713714	334.841894649	0
59	3714670	334.934264213	0
59	3715581	335.016820863	0
59	3716979	335.15051484	3
59	3718831	335.320245824	0
59	3719110	335.346191761	0
59	3722344	335.647107382	0
59	3723305	335.732735315	0
59	3723555	335.748976205	1
59	3724315	335.828752165	0
59	3724378	335.835380269	0
59	3724904	335.905268547	0
59	3728920	336.29547514	0
59	3731143	336.501397417	0
59	3731704	336.551703153	0
59	3734358	336.775821895	0
59	3735324	336.867673131	4
59	3735500	336.881852382	3
59	3737619	337.09470616	0
59	3738195	337.16605464	0
59	3738434	337.191845398	0
59	3740439	337.429193031	0
59	3740464	337.431492242	0
59	3741644	337.554064806	0
59	3743543	337.730870736	0
59	3744211	337.799704943	0
59	3745495	337.941119706	0
59	3746611	338.064035498	0
59	3746689	338.074754315	1
59	3747115	338.123998798	0
59	3747168	338.130513692	0
59	3749317	338.391046166	0
59	3749484	338.407089815	0
59	3750086	338.463286728	0
59	3751092	338.558051651	0
59	3755316	338.898610835	0
59	3756685	339.030901779	0
59	3758122	339.167011414	0
59	3758879	339.245077063	0
59	3759947	339.346338767	0
59	3762893	339.692478214	0
59	3763452	339.770269049	0
59	3764448	339.889276652	1
59	3765144	339.963276111	0
59	3766196	340.073637826	0
59	3767056	340.15983748	0
59	3773594	340.683085098	0
59	3774024	340.711076596	0
59	3774286	340.7263319	0
59	3774528	340.745491364	0
59	3774969	340.772735382	0
59	3775306	340.795565	0
59	3779492	341.092676594	0
59	3782175	341.291910599	0
59	3782515	341.316634063	0
59	3783233	341.37149817	0
59	3785856	341.557494085	0
59	3787357	341.684842184	0
59	3787512	341.700398354	0
59	3787614	341.707250581	0
59	3789969	341.92631164	0
59	3791223	342.034918682	4
59	3791848	342.071782916	0
59	3794290	342.255221152	0
59	3794782	342.298372046	3
59	3794894	342.301596137	0
59	3803529	342.898862726	0
59	3804411	342.960699134	1
59	3804478	342.963980514	0
59	3806220	343.06621593	0
59	3806596	343.085854602	0
59	3807296	343.128465245	0
59	3812745	343.503456571	0
59	3814073	343.606858356	0
59	3814330	343.630592147	0
59	3814533	343.652437092	0
59	3817254	343.90297952	0
59	3818304	344.006127203	0
59	3821225	344.226056252	0
59	3821496	344.244111523	0
59	3824193	344.449760387	0
59	3824999	344.514593758	0
59	3825140	344.525499413	0
59	3826351	344.620458866	0
59	3826645	344.644514819	0
59	3827870	344.740650227	0
59	3828058	344.75904389	0
59	3828289	344.776910712	0