version 2
run KademliaDHT-6-20211202-22:13:48-9356
attr Lifetime 700s
attr configname KademliaDHT
attr datetime 20211202-22:13:48
attr experiment KademliaDHT
attr inifile configs.ini
attr iterationvars $Lifetime=700s
attr iterationvars2 "$Lifetime=700s, $repetition=0"
attr measurement $Lifetime=700s
attr network oversim.underlay.simpleunderlay.SimpleUnderlayNetwork
attr processid 9356
attr repetition 0
attr replication #0
attr resultdir results
attr runnumber 6
attr seedset 6

vector 43  SimpleUnderlayNetwork.globalObserver.globalStatistics  "GlobalNodeList: Number of nodes"  ETV
vector 44  SimpleUnderlayNetwork.globalObserver.globalStatistics  "GlobalDhtTestMap: Number of stored DHT entries"  ETV
vector 45  SimpleUnderlayNetwork.globalObserver.globalStatistics  "Kademlia: Buckets Refreshed Per Task"  ETV
vector 46  SimpleUnderlayNetwork.globalObserver.globalStatistics  "LifetimeChurn: Time between deletes"  ETV
vector 47  SimpleUnderlayNetwork.globalObserver.globalStatistics  "LifetimeChurn: Session Time"  ETV
vector 48  SimpleUnderlayNetwork.globalObserver.globalStatistics  "LifetimeChurn: Time between creates"  ETV
43	1389459	150	518
43	2092265	200	521
43	2770260	250	521
43	3427704	300	515
43	4041569	350	498
43	4646040	400	507
43	5269603	450	512
43	5891646	500	508
43	6513105	550	506
43	7140441	600	505
43	7746960	650	505
43	8382082	700	516
43	9017396	750	506
43	9572038	800	501
43	10157150	850	505
43	10787311	900	521
43	11397155	950	534
43	11999350	1000	527
43	12673415	1050	531
43	13322726	1100	531
44	1389460	150	744
44	1547666	160	845
44	1676052	170	923
44	1818838	180	995
44	1947510	190	1053
44	2092266	200	1139
44	2228212	210	1237
44	2364317	220	1324
44	2506111	230	1406
44	2640655	240	1479
44	2770261	250	1550
44	2921261	260	1650
44	3038106	270	1722
44	3168937	280	1813
44	3290660	290	1889
44	3427705	300	1965
44	3545114	310	2037
44	3684211	320	2118
44	3802270	330	2200
44	3924214	340	2290
44	4041570	350	2365
44	4155039	360	2424
44	4275995	370	2434
44	4397316	380	2421
44	4520404	390	2414
44	4646041	400	2385
44	4774703	410	2421
44	4907496	420	2410
44	5030855	430	2429
44	5151355	440	2425
44	5269604	450	2409
44	5401688	460	2396
44	5531746	470	2402
44	5654394	480	2408
44	5768050	490	2427
44	5891647	500	2424
44	6014859	510	2396
44	6156942	520	2382
44	6282099	530	2394
44	6397325	540	2405
44	6513106	550	2408
44	6643060	560	2394
44	6766421	570	2401
44	6893541	580	2396
44	7027293	590	2403
44	7140442	600	2397
44	7266113	610	2406
44	7392284	620	2399
44	7504729	630	2403
44	7621920	640	2404
44	7746961	650	2409
44	7891322	660	2410
44	8019126	670	2406
44	8149023	680	2400
44	8273865	690	2405
44	8382083	700	2415
44	8500681	710	2390
44	8626408	720	2426
44	8749981	730	2411
44	8892445	740	2412
44	9017397	750	2416
44	9116733	760	2411
44	9225207	770	2395
44	9339342	780	2404
44	9450046	790	2397
44	9572039	800	2393
44	9691632	810	2399
44	9808166	820	2412
44	9913521	830	2392
44	10029468	840	2392
44	10157151	850	2401
44	10279354	860	2395
44	10403094	870	2394
44	10527746	880	2381
44	10659601	890	2363
44	10787312	900	2386
44	10898235	910	2407
44	11011775	920	2404
44	11142595	930	2390
44	11259548	940	2391
44	11397156	950	2388
44	11525360	960	2409
44	11636383	970	2419
44	11757695	980	2414
44	11878507	990	2413
44	11999351	1000	2408
44	12136323	1010	2422
44	12271815	1020	2428
44	12410832	1030	2445
44	12533242	1040	2449
44	12673416	1050	2436
44	12805521	1060	2430
44	12940399	1070	2468
44	13065202	1080	2471
44	13193791	1090	2478
44	13322727	1100	2472
44	13454608	1110	2488
44	13590452	1120	2487
44	13724211	1130	2502
44	13809313	1140	2504
45	1391342	150.166200079	0
45	1391655	150.192421265	0
45	1392322	150.260606456	0
45	1396357	150.594247323	0
45	1397494	150.664026513	3
45	1402561	150.917602346	2
45	1409424	151.25608577	0
45	1412238	151.394365434	1
45	1415490	151.562003123	0
45	1431675	152.625417818	1
45	1432050	152.656332067	3
45	1434615	152.863305468	0
45	1440731	153.306369284	0
45	1449145	153.730461396	0
45	1455390	154.088812791	1
45	1458495	154.300410088	0
45	1475985	155.378705294	2
45	1487473	155.955276799	0
45	1496791	156.700291052	0
45	1507475	157.37996216	3
45	1520439	158.190487187	0
45	1525911	158.491894119	1
45	1534520	159.085739626	0
45	1535583	159.156322439	3
45	1553683	160.492369979	0
45	1561792	161.050447447	0
45	1576293	162.287149902	0
45	1582804	162.937916323	0
45	1587776	163.374498346	0
45	1592899	163.830195255	0
45	1593079	163.844602961	1
45	1602799	164.705087746	1
45	1604653	164.857706061	2
45	1611426	165.382911438	0
45	1611627	165.398746954	1
45	1614749	165.709932672	3
45	1675500	169.960863682	1
45	1676853	170.056964684	0
45	1712243	172.478567623	0
45	1719151	173.075505418	0
45	1722116	173.434568578	1
45	1743119	175.1373361	0
45	1749372	175.633086222	1
45	1754094	175.986492244	0
45	1759595	176.419384179	0
45	1777040	177.334664404	0
45	1787262	177.854775586	2
45	1789920	178.010212373	2
45	1795757	178.415251446	0
45	1814528	179.746305618	3
45	1823103	180.235913818	0
45	1832445	180.982980574	0
45	1834873	181.203897446	0
45	1840451	181.675879937	1
45	1873759	184.353258412	0
45	1894369	185.762435765	1
45	1897148	185.96072087	0
45	1909439	186.972386362	0
45	1924168	188.264220276	0
45	1925350	188.363718413	5
45	1929163	188.635200902	0
45	1930321	188.72558013	0
45	1939220	189.365779867	1
45	1957777	190.685545859	2
45	1973108	191.668392699	0
45	1979802	192.058087273	4
45	2003384	193.932520117	0
45	2007272	194.335935195	3
45	2010498	194.595215635	0
45	2013798	194.834214509	0
45	2014428	194.879458553	0
45	2017311	195.055383353	0
45	2025587	195.57331434	0
45	2030359	195.956840576	0
45	2035438	196.337355957	0
45	2040264	196.734839199	0
45	2043367	196.943157803	4
45	2044769	197.043836559	0
45	2048774	197.301876005	0
45	2054342	197.67660379	2
45	2080477	199.288177378	0
45	2081087	199.325022851	2
45	2092375	200.009888774	0
45	2099777	200.478864603	2
45	2100351	200.520227553	2
45	2101774	200.617438596	0
45	2107639	201.012909247	0
45	2107826	201.025436875	0
45	2110145	201.190360315	0
45	2111599	201.29584246	0
45	2118625	201.822400809	0
45	2118756	201.833975325	0
45	2121689	202.038343383	0
45	2122372	202.081237215	0
45	2124153	202.188518153	0
45	2130171	202.577554554	0
45	2132602	202.782357027	0
45	2133983	202.920383338	3
45	2134255	202.945362966	0
45	2136155	203.108321377	0
45	2136825	203.185977077	0
45	2137680	203.289681488	0
45	2137903	203.317700894	0
45	2138200	203.350138146	0
45	2139739	203.524950012	0
45	2139930	203.545599163	0
45	2140096	203.563290055	0
45	2140161	203.569508425	0
45	2140272	203.584614413	0
45	2141319	203.691536367	0
45	2141646	203.720017569	0
45	2142833	203.810798474	0
45	2143136	203.832795388	0
45	2143680	203.872856184	0
45	2144990	203.956829024	1
45	2147405	204.117519802	0
45	2150056	204.31990743	0
45	2151700	204.484386359	0
45	2155114	204.830797385	0
45	2155343	204.850739147	0
45	2155389	204.855473894	0
45	2158772	205.08557752	0
45	2161065	205.236498235	0
45	2163214	205.379831536	0
45	2169511	205.735709993	0
45	2171118	205.838239624	0
45	2171787	205.878572363	0
45	2174569	206.065720284	0
45	2175050	206.097053095	0
45	2177547	206.235247613	0
45	2177773	206.246621744	0
45	2178009	206.26402995	0
45	2182323	206.547684188	0
45	2182814	206.580244619	0
45	2183657	206.648189071	0
45	2185190	206.759135999	8
45	2186659	206.865281162	0
45	2187307	206.916967046	0
45	2188318	207.001335281	0
45	2188508	207.015644095	0
45	2195601	207.40517134	0
45	2198093	207.540397382	0
45	2198396	207.560574496	0
45	2198514	207.571261733	0
45	2198604	207.576856078	0
45	2199131	207.614236959	0
45	2200433	207.702428563	0
45	2202016	207.852121742	0
45	2203662	208.071078417	0
45	2204099	208.120100666	0
45	2204612	208.179555143	0
45	2204950	208.207954844	0
45	2207633	208.406717014	0
45	2207849	208.422161528	0
45	2211316	208.65200683	0
45	2212948	208.763499227	0
45	2216877	209.050560916	0
45	2217240	209.085184987	0
45	2217643	209.113666555	0
45	2217689	209.117010238	0
45	2217914	209.135283673	0
45	2220069	209.311189455	0
45	2223026	209.619632889	0
45	2223044	209.621185485	0
45	2223172	209.634340752	1
45	2223220	209.638758613	6
45	2223982	209.696732202	0
45	2225418	209.80360385	0
45	2226865	209.903681518	0
45	2229819	210.113507888	4
45	2231018	210.20232424	0
45	2231668	210.246351184	0
45	2236288	210.526658704	0
45	2240179	210.779765376	0
45	2240444	210.802378692	0
45	2240949	210.842299074	0
45	2241366	210.875757627	0
45	2242669	210.990864848	0
45	2243131	211.037889188	0
45	2244885	211.202305785	0
45	2244890	211.203381912	0
45	2247024	211.386953324	0
45	2247291	211.413438768	1
45	2247457	211.431480629	0
45	2248006	211.48675213	0
45	2248995	211.598146419	0
45	2249355	211.635895899	0
45	2249898	211.700330631	2
45	2252425	211.926856509	0
45	2252549	211.938695365	0
45	2253830	212.016829953	0
45	2257063	212.166125472	0
45	2260372	212.300730815	0
45	2264452	212.484513368	0
45	2265200	212.522187921	0
45	2268948	212.728572748	0
45	2270327	212.803032786	0
45	2275418	213.099993407	0
45	2276373	213.165117743	0
45	2279416	213.429283709	0
45	2280326	213.514261058	0
45	2280474	213.532568357	0
45	2280525	213.541137228	0
45	2280788	213.562371423	0
45	2281234	213.599634784	0
45	2281880	213.653231476	0
45	2282889	213.727820976	1
45	2285023	213.880157268	0
45	2287823	214.064182709	0
45	2289868	214.201921621	2
45	2289901	214.204505886	0
45	2292647	214.387851944	0
45	2293152	214.422047582	0
45	2295204	214.592636996	0
45	2295545	214.619851703	2
45	2297152	214.761991785	0
45	2301249	215.12272142	0
45	2301891	215.176319729	0
45	2302223	215.206359822	0
45	2303850	215.353386368	0
45	2304124	215.383634899	0
45	2305372	215.50671242	0
45	2305642	215.532383626	0
45	2305658	215.533675998	0
45	2305965	215.557715198	0
45	2307985	215.753407758	0
45	2308065	215.761663577	0
45	2308299	215.776586322	2
45	2313342	216.20221441	0
45	2314731	216.31933392	2
45	2315052	216.342337959	0
45	2315090	216.346229708	0
45	2315369	216.374874085	0
45	2315576	216.393646547	0
45	2315629	216.398015606	0
45	2318037	216.600259615	0
45	2322460	216.972308963	0
45	2324769	217.179406	0
45	2324781	217.180343776	0
45	2327120	217.355924187	0
45	2327165	217.358683352	3
45	2328401	217.447275877	0
45	2329347	217.511077603	0
45	2334267	217.793672418	1
45	2336366	217.894131105	3
45	2338082	217.986004378	0
45	2338507	218.01030385	0
45	2343640	218.36979086	0
45	2348141	218.675654059	0
45	2351232	218.913861309	0
45	2351733	218.971364726	0
45	2351864	218.983653837	0
45	2352822	219.08910992	0
45	2352920	219.098571503	0
45	2353190	219.131338309	0
45	2353548	219.169592942	0
45	2355366	219.344936618	0
45	2355558	219.364915488	0
45	2355619	219.373025961	0
45	2357394	219.52413564	0
45	2358058	219.585534386	0
45	2361322	219.81647013	0
45	2362565	219.890177924	0
45	2364158	219.991752694	0
45	2364172	219.993045872	0
45	2365360	220.070343668	0
45	2368053	220.278582059	2
45	2368595	220.323278812	0
45	2372772	220.663882447	0
45	2374839	220.842559776	0
45	2375955	220.924074182	1
45	2375972	220.924759106	0
45	2378285	221.073905489	0
45	2379808	221.169773339	0
45	2380068	221.186139017	0
45	2381071	221.251873993	0
45	2382210	221.330134346	0
45	2382382	221.341955756	0
45	2382773	221.370219036	0
45	2384231	221.464355815	0
45	2386530	221.60773104	0
45	2389203	221.784543307	0
45	2389463	221.8066204	0
45	2390216	221.857122169	0
45	2392008	221.970631164	0
45	2392655	222.014032959	0
45	2392986	222.036794308	0
45	2393404	222.064568492	0
45	2394042	222.109059269	0
45	2394397	222.138513644	0
45	2398103	222.402472438	0
45	2398663	222.439755741	0
45	2401202	222.625905717	0
45	2403153	222.773346661	2
45	2404495	222.868174439	0
45	2404935	222.898706815	0
45	2406985	223.024977151	0
45	2407845	223.078227913	0
45	2408788	223.138865758	0
45	2412884	223.367431816	0
45	2414241	223.448178248	0
45	2415376	223.525636807	3
45	2417400	223.648406749	0
45	2419577	223.770116923	0
45	2420159	223.799001043	0
45	2422317	223.923653735	0
45	2427044	224.240730433	0
45	2427681	224.302540104	4
45	2433371	224.714355581	0
45	2435463	224.878421897	4
45	2437156	225.014749331	0
45	2437282	225.029109166	0
45	2437289	225.029687836	0
45	2438629	225.160853656	0
45	2439256	225.220167189	1
45	2441300	225.398823804	0
45	2442114	225.462920401	0
45	2443573	225.585058854	0
45	2446061	225.79075152	0
45	2450810	226.169911692	0
45	2451719	226.252778499	0
45	2451758	226.257685165	0
45	2452629	226.349124124	0
45	2453273	226.408284527	0
45	2458084	226.85481909	0
45	2458685	226.916129773	1
45	2459129	226.960452377	0
45	2459355	226.979757553	0
45	2460021	227.052409094	0
45	2462993	227.318469803	0
45	2463305	227.345600377	0
45	2463373	227.351067378	0
45	2464641	227.440345732	0
45	2465895	227.537237647	0
45	2466042	227.550929807	0
45	2467539	227.670376456	0
45	2471736	227.937975322	0
45	2473920	228.059232726	0
45	2474115	228.068832109	0
45	2478706	228.314059803	0
45	2478904	228.323311096	2
45	2479371	228.342964831	0
45	2480711	228.401414836	1
45	2481242	228.423247756	0
45	2489340	228.826153949	0
45	2496339	229.278747778	0
45	2497288	229.351827529	0
45	2497455	229.364141614	0
45	2499416	229.528716536	0
45	2500921	229.656486742	0
45	2502725	229.791432001	0
45	2503380	229.834543965	0
45	2503813	229.861303547	0
45	2503997	229.872361579	0
45	2505682	229.971344853	0
45	2506947	230.061182573	0
45	2508615	230.175019382	2
45	2508781	230.185185412	0
45	2509789	230.249274059	0
45	2514286	230.511789246	0
45	2516768	230.684700256	1
45	2520686	230.99039618	0
45	2522450	231.108668318	0
45	2522617	231.120651037	0
45	2522829	231.136261958	0
45	2523770	231.209599479	0
45	2524260	231.252882262	0
45	2524805	231.300910261	0
45	2526113	231.413974961	0
45	2526572	231.452154984	1
45	2529056	231.669539001	0
45	2529764	231.72917837	0
45	2533229	232.003902318	0
45	2533462	232.023779957	0
45	2533975	232.075046177	0
45	2535673	232.217897636	0
45	2537272	232.352324475	0
45	2537885	232.406672177	0
45	2538622	232.471120247	0
45	2544666	232.949208352	0
45	2545359	233.016976081	0
45	2546437	233.119838141	1
45	2546804	233.153741185	0
45	2547947	233.259581907	2
45	2548772	233.321665626	0
45	2552714	233.631842047	0
45	2557051	233.987760253	0
45	2557341	234.014882425	0
45	2557612	234.03928018	0
45	2560350	234.239482405	0
45	2560770	234.271261101	0
45	2561866	234.351902511	0
45	2562733	234.412906209	0
45	2565025	234.572221398	0
45	2565130	234.5772201	0
45	2571585	234.923843481	0
45	2572515	234.969721067	0
45	2577484	235.262119256	2
45	2579457	235.410490636	1
45	2580394	235.475268465	0
45	2580737	235.502567011	2
45	2580988	235.518453423	0
45	2582135	235.601191179	0
45	2582596	235.642194693	0
45	2584578	235.796971503	0
45	2585091	235.83850155	0
45	2585542	235.87600591	0
45	2586707	235.971355604	0
45	2587183	236.008176832	0
45	2588878	236.14605282	1
45	2590877	236.312475641	0
45	2590926	236.320060276	0
45	2591007	236.327762739	0
45	2591742	236.397782867	0
45	2593629	236.56467803	0
45	2597353	236.861699242	0
45	2598142	236.929936111	0
45	2600053	237.07361666	1
45	2602551	237.229054764	0
45	2603279	237.276967438	0
45	2603348	237.28041945	0
45	2604337	237.340877815	0
45	2607047	237.494652108	0
45	2610646	237.713845012	0
45	2612801	237.857281105	0
45	2612806	237.85778547	3
45	2613270	237.884961473	0
45	2615587	238.036049475	0
45	2616207	238.081013613	0
45	2617436	238.171615115	2
45	2619119	238.284336166	0
45	2619534	238.310350796	1
45	2619559	238.312350638	1
45	2624320	238.691812323	0
45	2625008	238.755841684	0
45	2631470	239.250374902	0
45	2632583	239.330698909	0
45	2636611	239.64622965	0
45	2637537	239.724095677	0
45	2637862	239.759208961	2
45	2638139	239.785902652	0
45	2639182	239.880671467	2
45	2639681	239.929367479	0
45	2641370	240.054612002	0
45	2644254	240.336024177	0
45	2645486	240.460587276	1
45	2646298	240.536176298	0
45	2647985	240.670528978	0
45	2648315	240.702163019	0
45	2648387	240.709447193	0
45	2648499	240.720533053	0
45	2650058	240.857887082	1
45	2651405	240.975141569	0
45	2651929	241.014475686	0
45	2653376	241.12237404	0
45	2654036	241.157768176	0
45	2657378	241.361492748	0
45	2658274	241.411577117	0
45	2658521	241.42715129	0
45	2662767	241.657673725	0
45	2662780	241.658284777	0
45	2662982	241.669713883	0
45	2665695	241.827908866	0
45	2666228	241.8577266	1
45	2666648	241.879490298	0
45	2669938	242.083403693	0
45	2674728	242.41644532	0
45	2678683	242.758228072	0
45	2678777	242.765581941	0
45	2678910	242.785068649	0
45	2680508	242.953586512	0
45	2680896	242.989809442	0
45	2683760	243.24859743	0
45	2684301	243.29024328	0
45	2687423	243.544492066	2
45	2689309	243.680882128	2
45	2689453	243.690070433	0
45	2689477	243.692990033	0
45	2690074	243.733738945	1
45	2691416	243.816507636	0
45	2691439	243.817146188	0
45	2694194	243.993624168	0
45	2697899	244.341628096	0
45	2699060	244.464128359	0
45	2699145	244.472372277	0
45	2700028	244.547741551	0
45	2701042	244.636362699	0
45	2703786	244.888738782	0
45	2703981	244.903439825	0
45	2705588	245.039240595	0
45	2707403	245.203657276	3
45	2707695	245.228057618	0
45	2707811	245.238175456	0
45	2709384	245.350902452	0
45	2712048	245.592447159	0
45	2712067	245.596739798	0
45	2712439	245.645503071	0
45	2712870	245.705050094	1
45	2713516	245.779677542	1
45	2714493	245.891646075	0
45	2716020	246.070645903	0
45	2716306	246.095544259	0
45	2716661	246.127499185	0
45	2717132	246.173988051	0
45	2718195	246.297233886	0
45	2718696	246.350684328	0
45	2719910	246.460398047	0
45	2720324	246.490955556	0
45	2721211	246.567294636	0
45	2725073	246.861468939	0
45	2727840	247.028509179	0
45	2729067	247.113559868	0
45	2729224	247.125838598	3
45	2729280	247.127481102	0
45	2729577	247.149411749	0
45	2730264	247.203319644	0
45	2731294	247.281836215	0
45	2737385	247.717094203	0
45	2738216	247.768100814	0
45	2740648	247.893444577	0
45	2741661	247.948638589	0
45	2742627	248.000395357	0
45	2747809	248.369704572	0
45	2747841	248.373748711	0
45	2748215	248.405892688	1
45	2748348	248.416277062	0
45	2748374	248.418294985	0
45	2753350	248.774940326	0
45	2754272	248.8283715	0
45	2754955	248.872931691	0
45	2755519	248.906230699	2
45	2756154	248.945493644	2
45	2758650	249.112164277	1
45	2759098	249.136383242	0
45	2759457	249.153597248	1
45	2759605	249.161525269	0
45	2762213	249.323035142	0
45	2764002	249.475128677	0
45	2764848	249.55403388	0
45	2765327	249.620423346	0
45	2766158	249.693765846	2
45	2767233	249.784888569	6
45	2768019	249.845025935	0
45	2768389	249.870031529	0
45	2768425	249.871955072	0
45	2772796	250.166200079	0
45	2773222	250.192421265	0
45	2774332	250.260606456	0
45	2780768	250.594247323	0
45	2781949	250.664026513	0
45	2786468	250.917602346	0
45	2791749	251.25608577	1
45	2793849	251.394365434	0
45	2796402	251.562003123	0
45	2810937	252.656332067	0
45	2813739	252.863305468	0
45	2819502	253.306369284	0
45	2821350	253.431998266	0
45	2826245	253.730461396	0
45	2830275	254.048081349	6
45	2830887	254.088812791	0
45	2833430	254.300410088	0
45	2843612	254.969291906	0
45	2845335	255.100165416	5
45	2850308	255.378705294	0
45	2861971	255.955276799	0
45	2883075	257.37996216	0
45	2890800	257.961356328	4
45	2893767	258.190487187	0
45	2908344	259.085739626	0
45	2909595	259.156322439	0
45	2917949	259.753571062	3
45	2929067	260.492369979	0
45	2935821	261.050447447	0
45	2956555	262.937916323	0
45	2962684	263.374498346	2
45	2965570	263.645912174	5
45	2967751	263.830195255	0
45	2967934	263.844602961	0
45	2971791	264.132810072	1
45	2973241	264.223637107	7
45	2980233	264.705087746	0
45	2982002	264.857706061	0
45	2987266	265.382911438	2
45	2987436	265.398746954	0
45	2991688	265.709932672	0
45	3002131	266.849322822	2
45	3028772	269.271870685	2
45	3037578	269.960863682	0
45	3058392	271.486008666	1
45	3071401	272.478567623	0
45	3076865	272.84213251	4
45	3080502	273.075505418	0
45	3086050	273.434568578	0
45	3097515	274.527711856	2
45	3105819	275.1373361	0
45	3106411	275.17679643	0
45	3112872	275.633086222	0
45	3114602	275.792831718	4
45	3116986	275.986492244	0
45	3120625	276.355064632	7
45	3121326	276.419384179	0
45	3127057	277.022682861	0
45	3132287	277.334664404	0
45	3133611	277.403653298	1
45	3153445	278.845071974	2
45	3166995	279.865379953	1
45	3171656	280.235913818	0
45	3179799	280.982980574	0
45	3182351	281.170949574	1
45	3182780	281.203897446	0
45	3183118	281.224276338	3
45	3190210	281.675879937	0
45	3219558	284.353258412	3
45	3223898	284.70682289	1
45	3238389	285.69794993	0
45	3239171	285.762435765	0
45	3241216	285.96072087	0
45	3241335	285.969815713	2
45	3250403	286.710586362	1
45	3251367	286.77527582	3
45	3253900	286.972386362	0
45	3260013	287.419604482	3
45	3271558	288.264220276	0
45	3273205	288.363718413	0
45	3276642	288.635200902	0
45	3277577	288.72558013	0
45	3283832	289.365779867	0
45	3288999	289.858609695	1
45	3298013	290.685545859	1
45	3309003	291.668392699	0
45	3313864	292.058087273	0
45	3319632	292.583393451	3
45	3335132	293.550581389	2
45	3342225	293.932520117	0
45	3349810	294.335935195	0
45	3353932	294.595215635	4
45	3358349	294.879458553	0
45	3360898	295.055383353	0
45	3367721	295.57331434	0
45	3371819	295.956840576	0
45	3376338	296.337355957	0
45	3379262	296.734839199	0
45	3381125	296.943157803	0
45	3381762	296.987795043	2
45	3382606	297.043836559	0
45	3387228	297.301876005	0
45	3389930	297.449036885	1
45	3393944	297.67660379	0
45	3416430	299.288177378	0
45	3417294	299.342783927	0
45	3426079	299.866340672	2
45	3427853	300.009888774	0
45	3432549	300.478864603	0
45	3432978	300.520227553	0
45	3434046	300.617438596	0
45	3438709	301.012909247	0
45	3438860	301.025436875	0
45	3440318	301.190360315	0
45	3441163	301.29584246	0
45	3447195	301.822400809	0
45	3449845	302.038343383	1
45	3450338	302.081237215	0
45	3451581	302.188518153	0
45	3456321	302.577554554	0
45	3459316	302.920383338	6
45	3459556	302.945362966	0
45	3461170	303.108321377	0
45	3461930	303.185977077	0
45	3462755	303.289681488	0
45	3462962	303.317700894	1
45	3463247	303.350138146	2
45	3464706	303.524950012	0
45	3464913	303.545599163	0
45	3465056	303.563290055	0
45	3465263	303.584614413	0
45	3466185	303.691536367	0
45	3466412	303.720017569	0
45	3467447	303.810798474	0
45	3467768	303.832795388	0
45	3468108	303.872856184	0
45	3470903	304.117519802	0
45	3473174	304.31990743	0
45	3479262	304.830797385	0
45	3479505	304.850739147	0
45	3479564	304.855473894	0
45	3481892	305.08557752	0
45	3484126	305.298695432	0
45	3485186	305.379831536	0
45	3488792	305.735709993	0
45	3490386	305.878572363	0
45	3492656	306.065720284	0
45	3493011	306.097053095	0
45	3494411	306.235247613	0
45	3494939	306.293219297	5
45	3497649	306.547684188	0
45	3497982	306.580244619	0
45	3500110	306.759135999	0
45	3501137	306.831928689	1
45	3501576	306.865281162	0
45	3502344	306.916967046	0
45	3503583	307.001335281	3
45	3503840	307.015644095	1
45	3505039	307.091204518	3
45	3509070	307.40517134	0
45	3511311	307.560574496	0
45	3511530	307.576856078	0
45	3512089	307.614236959	0
45	3512207	307.621484713	2
45	3513402	307.702428563	0
45	3515936	307.852121742	0
45	3519140	308.071078417	0
45	3519825	308.120100666	0
45	3520627	308.179555143	0
45	3521103	308.207954844	0
45	3523786	308.406717014	0
45	3523988	308.422161528	0
45	3524251	308.440806793	0
45	3526823	308.65200683	0
45	3533679	309.085184987	0
45	3534123	309.113666555	0
45	3534198	309.117010238	0
45	3534491	309.135283673	0
45	3537130	309.311189455	0
45	3540625	309.619632889	0
45	3540660	309.621185485	0
45	3540795	309.634340752	0
45	3540845	309.638758613	0
45	3541432	309.696732202	0
45	3542567	309.80360385	0
45	3543919	309.903681518	0
45	3547558	310.20232424	0
45	3548095	310.246351184	0
45	3551511	310.526658704	0
45	3554672	310.779765376	0
45	3554972	310.802378692	0
45	3555523	310.842299074	0
45	3555997	310.875757627	0
45	3558147	311.037889188	0
45	3560361	311.202305785	0
45	3560368	311.203381912	0
45	3562998	311.386953324	0
45	3563551	311.431480629	0
45	3564410	311.48675213	0
45	3566001	311.598146419	0
45	3566547	311.635895899	0
45	3567474	311.700330631	0
45	3570397	311.926856509	0
45	3570575	311.938695365	0
45	3571477	312.016829953	4
45	3573086	312.166125472	0
45	3574170	312.300730815	0
45	3576273	312.522187921	0
45	3578735	312.728572748	0
45	3579769	312.803032786	0
45	3582871	312.994751637	0
45	3584347	313.099993407	0
45	3584430	313.105003551	2
45	3585294	313.165117743	0
45	3590582	313.514261058	0
45	3591013	313.532568357	0
45	3591164	313.541137228	0
45	3591510	313.562371423	0
45	3592105	313.599634784	0
45	3593026	313.653231476	0
45	3594261	313.727820976	0
45	3599576	314.064182709	0
45	3601653	314.201921621	0
45	3601675	314.204505886	0
45	3604086	314.387851944	0
45	3604459	314.422047582	0
45	3606357	314.592636996	0
45	3606562	314.619851703	0
45	3608063	314.761991785	0
45	3613774	315.176319729	0
45	3614206	315.206359822	0
45	3616164	315.353386368	0
45	3616614	315.383634899	0
45	3618115	315.50671242	0
45	3618414	315.533675998	0
45	3618707	315.557715198	0
45	3621038	315.753407758	0
45	3621119	315.761663577	0
45	3621264	315.776586322	0
45	3622015	315.849633008	1
45	3626239	316.20221441	0
45	3627849	316.31933392	0
45	3628175	316.342337959	0
45	3628217	316.346229708	0
45	3629045	316.398015606	0
45	3633785	316.723254907	5
45	3637862	316.972308963	0
45	3641849	317.179406	0
45	3641952	317.185350524	0
45	3645672	317.355924187	0
45	3645727	317.358683352	0
45	3647406	317.447275877	0
45	3648581	317.511077603	0
45	3649569	317.568956301	2
45	3651943	317.690245932	1
45	3653815	317.793672418	0
45	3654857	317.854883305	1
45	3655439	317.894131105	0
45	3656985	317.986004378	0
45	3657399	318.01030385	0
45	3662655	318.36979086	0
45	3666837	318.675654059	0
45	3671251	318.971364726	2
45	3671439	318.983653837	0
45	3672731	319.098571503	0
45	3673064	319.131338309	0
45	3675123	319.344936618	0
45	3675317	319.364915488	0
45	3675430	319.373025961	1
45	3677451	319.52413564	0
45	3678298	319.585534386	0
45	3681527	319.81647013	0
45	3682581	319.890177924	0
45	3684080	319.991752694	0
45	3688676	320.278582059	0
45	3695305	320.663882447	0
45	3697705	320.842559776	0
45	3698715	320.924074182	0
45	3698720	320.924759106	0
45	3700351	321.073905489	0
45	3700901	321.119798928	3
45	3701417	321.169773339	0
45	3701572	321.186139017	2
45	3701597	321.188510609	0
45	3702299	321.251873993	0
45	3703182	321.330134346	0
45	3703343	321.341955756	0
45	3703687	321.370219036	0
45	3709333	321.784543307	1
45	3709655	321.8066204	0
45	3712123	321.970631164	0
45	3712939	322.036794308	0
45	3713260	322.064568492	0
45	3713824	322.109059269	1
45	3714289	322.138513644	0
45	3718127	322.402472438	0
45	3718661	322.439755741	0
45	3721125	322.625905717	0
45	3722836	322.773346661	0
45	3723917	322.868174439	0
45	3724233	322.898706815	0
45	3725672	323.024977151	0
45	3726946	323.138865758	0
45	3729430	323.341513391	3
45	3729873	323.367431816	0
45	3730771	323.448178248	0
45	3731712	323.525636807	0
45	3733163	323.648406749	0
45	3734718	323.770116923	0
45	3735022	323.799001043	0
45	3736621	323.923653735	0
45	3740415	324.240730433	0
45	3741194	324.302540104	0
45	3745931	324.714355581	0
45	3747468	324.878421897	0
45	3748701	325.014749331	0
45	3748887	325.029109166	0
45	3748892	325.029687836	1
45	3750299	325.160853656	0
45	3750955	325.220167189	0
45	3753123	325.398823804	0
45	3753973	325.462920401	0
45	3755669	325.585058854	0
45	3758704	325.79075152	0
45	3759823	325.894825168	0
45	3761941	326.169911692	0
45	3762429	326.252778499	0
45	3762459	326.257685165	0
45	3763420	326.408284527	0
45	3768081	326.85481909	0
45	3769115	326.916129773	0
45	3769738	326.960452377	0
45	3769985	326.979757553	0
45	3771048	327.052409094	0
45	3774389	327.318469803	0
45	3774735	327.345600377	0
45	3774796	327.351067378	0
45	3775726	327.440345732	0
45	3776684	327.537237647	0
45	3776819	327.550929807	0
45	3777981	327.670376456	0
45	3780043	327.937975322	0
45	3780998	328.059232726	0
45	3781138	328.068832109	0
45	3783040	328.314059803	0
45	3783106	328.323311096	0
45	3783253	328.342964831	0
45	3783770	328.401414836	0
45	3784024	328.423247756	0
45	3787486	328.826153949	0
45	3791791	329.278747778	0
45	3792805	329.351827529	0
45	3795399	329.528716536	0
45	3797184	329.656486742	0
45	3798247	329.73194964	1
45	3799034	329.791432001	0
45	3799663	329.834543965	0
45	3800053	329.861303547	0
45	3800191	329.872361579	0
45	3800587	329.902857605	1
45	3801805	329.967314076	0
45	3804986	330.175019382	0
45	3805154	330.185185412	0
45	3806163	330.249274059	0
45	3810505	330.511789246	0
45	3813536	330.684700256	0
45	3818210	330.99039618	0
45	3819755	331.108668318	0
45	3819901	331.120651037	0
45	3820094	331.136261958	0
45	3820940	331.209599479	0
45	3821375	331.252882262	0
45	3821780	331.300910261	0
45	3822798	331.413974961	0
45	3823224	331.452154984	0
45	3825533	331.72917837	0
45	3828483	332.003902318	0
45	3828680	332.023779957	0
45	3829353	332.075046177	0
45	3833772	332.352324475	0
45	3834539	332.406672177	4
45	3835358	332.471120247	0
45	3840350	332.949208352	0
45	3841878	333.119838141	0
45	3842182	333.153741185	0
45	3843180	333.259581907	0
45	3843784	333.321665626	0
45	3846429	333.533512943	5
45	3848061	333.631842047	0
45	3853675	333.987760253	0
45	3854416	334.03928018	0
45	3857407	334.239482405	0
45	3857862	334.271261101	0
45	3859014	334.351902511	0
45	3859724	334.412906209	0
45	3862035	334.5772201	0
45	3866936	334.969721067	0
45	3869988	335.262119256	0
45	3871449	335.410490636	0
45	3872347	335.518453423	0
45	3873020	335.601191179	0
45	3873257	335.642194693	0
45	3874403	335.796971503	1
45	3874800	335.83850155	0
45	3875143	335.87600591	0
45	3876100	335.971355604	0
45	3876499	336.008176832	0
45	3878026	336.14605282	0
45	3880127	336.312475641	0
45	3880245	336.323757476	3
45	3880301	336.327762739	0
45	3881212	336.397782867	0
45	3883319	336.56467803	0
45	3886809	336.861699242	0
45	3887775	336.929936111	0
45	3889471	337.07361666	2
45	3892087	337.276967438	0
45	3892133	337.28041945	0
45	3893048	337.340877815	0
45	3895186	337.494652108	0
45	3900208	337.857281105	0
45	3900223	337.85778547	0
45	3900509	337.884961473	1
45	3902478	338.036049475	0
45	3902973	338.081013613	0
45	3903910	338.171615115	0
45	3905760	338.310350796	0
45	3905791	338.312350638	0
45	3906785	338.384191841	2
45	3910038	338.691812323	0
45	3910949	338.755841684	0
45	3916307	339.250374902	0
45	3917038	339.330698909	0
45	3921723	339.724095677	0
45	3922301	339.785902652	0
45	3923182	339.880671467	0
45	3923629	339.929367479	0