version 2
run PastryDHT-5-20211203-23:20:36-6496
attr Lifetime 600s
attr configname PastryDHT
attr datetime 20211203-23:20:36
attr experiment PastryDHT
attr inifile configs.ini
attr iterationvars $Lifetime=600s
attr iterationvars2 "$Lifetime=600s, $repetition=0"
attr measurement $Lifetime=600s
attr network oversim.underlay.simpleunderlay.SimpleUnderlayNetwork
attr processid 6496
attr repetition 0
attr replication #0
attr resultdir results
attr runnumber 5
attr seedset 5

vector 31  SimpleUnderlayNetwork.globalObserver.globalStatistics  "GlobalNodeList: Number of nodes"  ETV
vector 32  SimpleUnderlayNetwork.globalObserver.globalStatistics  "GlobalDhtTestMap: Number of stored DHT entries"  ETV
vector 33  SimpleUnderlayNetwork.globalObserver.globalStatistics  "LifetimeChurn: Session Time"  ETV
vector 34  SimpleUnderlayNetwork.globalObserver.globalStatistics  "LifetimeChurn: Time between creates"  ETV
vector 35  SimpleUnderlayNetwork.globalObserver.globalStatistics  "LifetimeChurn: Time between deletes"  ETV
31	2959206	150	498
31	3759213	200	499
31	4582927	250	500
31	5419694	300	502
31	6425385	350	513
31	7209432	400	504
31	8114563	450	499
31	9016922	500	495
31	9947603	550	499
31	10935361	600	498
31	11848385	650	495
31	12725901	700	501
31	13665357	750	500
31	14737148	800	500
31	15639764	850	492
31	16549899	900	496
31	17557728	950	500
31	18353539	1000	498
31	19195255	1050	495
31	19982805	1100	497
32	2959207	150	716
32	3075915	160	807
32	3261270	170	892
32	3416599	180	954
32	3616513	190	1012
32	3759214	200	1109
32	3888666	210	1186
32	4061718	220	1272
32	4245128	230	1362
32	4382481	240	1422
32	4582928	250	1475
32	4770407	260	1557
32	4948381	270	1651
32	5096488	280	1728
32	5270967	290	1806
32	5419695	300	1879
32	5623034	310	1949
32	5829274	320	2026
32	6035404	330	2113
32	6200987	340	2198
32	6425386	350	2277
32	6594449	360	2332
32	6711284	370	2330
32	6864856	380	2317
32	7066761	390	2315
32	7209433	400	2311
32	7375441	410	2328
32	7579817	420	2340
32	7758348	430	2345
32	7958563	440	2348
32	8114564	450	2341
32	8276218	460	2335
32	8434885	470	2336
32	8619070	480	2336
32	8828191	490	2349
32	9016923	500	2328
32	9204546	510	2339
32	9400943	520	2339
32	9620787	530	2324
32	9817729	540	2329
32	9947604	550	2347
32	10093712	560	2347
32	10308525	570	2328
32	10525600	580	2346
32	10758420	590	2344
32	10935362	600	2337
32	11132106	610	2344
32	11370652	620	2338
32	11550485	630	2327
32	11702997	640	2325
32	11848386	650	2325
32	12005739	660	2334
32	12221763	670	2338
32	12391804	680	2339
32	12572516	690	2326
32	12725902	700	2312
32	12939054	710	2306
32	13090624	720	2314
32	13229820	730	2321
32	13453026	740	2318
32	13665358	750	2309
32	13835557	760	2306
32	14053489	770	2290
32	14309059	780	2305
32	14530063	790	2316
32	14737149	800	2313
32	14944222	810	2308
32	15116304	820	2303
32	15284406	830	2298
32	15467143	840	2304
32	15639765	850	2315
32	15805044	860	2305
32	15983116	870	2309
32	16194716	880	2296
32	16380747	890	2299
32	16549900	900	2299
32	16761490	910	2303
32	16951832	920	2302
32	17115025	930	2308
32	17333706	940	2306
32	17557729	950	2305
32	17747420	960	2301
32	17943232	970	2298
32	18120939	980	2320
32	18252235	990	2313
32	18353540	1000	2317
32	18531120	1010	2305
32	18640273	1020	2310
32	18832736	1030	2305
32	19010283	1040	2315
32	19195256	1050	2313
32	19421160	1060	2313
32	19556459	1070	2322
32	19711088	1080	2334
32	19814125	1090	2318
32	19982806	1100	2318
32	20144875	1110	2328
32	20306415	1120	2320
32	20481861	1130	2331
32	20598051	1140	2299
33	2964547	150.572268301	1564.325718401
33	2969243	150.870854586	3.333427785
33	2997821	152.495136521	954.201098215
33	3032605	155.534909288	146.730648182
33	3055150	157.917259153	1844.459580982
33	3118784	162.018202282	1307.233144724
33	3119548	162.059788031	235.741353926
33	3143352	163.730468432	1208.635264006
33	3161857	164.58727411	987.905114009
33	3165583	164.733534135	471.558848342
33	3181636	165.821213625	993.087240521
33	3191912	166.500740928	282.43022233
33	3196500	166.81682983	386.032218244
33	3201538	167.323287885	503.411724266
33	3230019	168.509133991	422.4745665
33	3245086	169.535653152	191.797918155
33	3309935	173.155847903	150.633492103
33	3317445	173.870290991	1199.72814759
33	3342426	175.751625096	71.971763127
33	3342816	175.768167695	481.563554467
33	3345342	175.92339214	42.849645665
33	3349908	176.458235494	307.569821095
33	3352993	176.731476969	247.857922287
33	3354502	176.918989319	2060.185262969
33	3374515	177.755667275	1039.761400719
33	3378955	178.123365454	636.156058445
33	3379275	178.158841235	319.259987004
33	3380527	178.263112908	16.317086108
33	3423216	180.245435715	1567.774560593
33	3487048	184.149577452	1251.684403063
33	3494049	184.677047648	279.514154406
33	3535752	186.164440588	18.746085691
33	3538586	186.390404296	13.439319733
33	3549156	186.8277769	1622.006802347
33	3559303	187.312555119	389.365333635
33	3623783	190.397539114	921.165505966
33	3657055	192.59418947	788.306462949
33	3662645	193.004537013	0.229783718
33	3671251	193.364504274	392.807875239
33	3681166	194.067565525	175.222194025
33	3716531	196.644419539	2530.94061702
33	3738800	198.350543671	471.768262445
33	3752691	199.399437017	587.418316975
33	3765984	200.383413242	1163.161371707
33	3839285	206.173383959	1170.328732238
33	3840280	206.25943735	617.653883163
33	3854683	207.351023759	38.720109062
33	3859661	207.916524542	139.901627361
33	3876987	208.903978068	50.088790887
33	3881640	209.410392554	393.668753682
33	3889864	210.075035462	222.603880707
33	3891979	210.242739932	601.361716454
33	3934077	212.427350939	568.905726415
33	3937564	212.493511775	404.499226199
33	3980816	214.583701303	14.31825484
33	3988351	214.854764953	635.280505165
33	4028944	217.666802929	229.12949764
33	4032405	218.059235241	619.159126348
33	4043335	218.365264016	87.572276826
33	4074863	221.110762804	276.639669051
33	4079194	221.611755632	6.812312367
33	4083671	222.110032082	279.843513372
33	4085087	222.268275903	259.454894163
33	4110623	223.305389831	3.809244561
33	4168114	225.831820679	146.374017853
33	4246402	230.113287328	1339.291852215
33	4248733	230.29917359	347.069871626
33	4250026	230.445470535	88.632101648
33	4253504	230.725764085	2613.424474221
33	4270786	232.13616598	316.941235511
33	4297545	234.257623092	1605.151203596
33	4314486	235.812290932	26.680336279
33	4315404	235.910459222	149.857145844
33	4324641	236.284039312	28.532819436
33	4334072	237.187149443	647.345284429
33	4358733	238.541642532	753.777306331
33	4372939	239.390341796	233.962721844
33	4379495	239.79055437	1559.397609058
33	4388982	240.453064004	273.959066265
33	4419247	242.07828522	499.88566136
33	4480429	245.062857326	222.237682968
33	4484105	245.275293719	1673.597728795
33	4487006	245.361168672	453.563781694
33	4506700	246.251107438	1040.006094858
33	4541403	247.834310466	1775.239265559
33	4556289	248.663294656	253.720451266
33	4586222	250.195567621	33.190882103
33	4622215	253.312424387	1118.784911964
33	4631113	253.738885226	1641.934384387
33	4635927	254.400553954	1539.461297156
33	4638060	254.617985849	678.455226312
33	4638127	254.625484303	126.001020631
33	4654453	255.165523022	349.059959726
33	4675205	256.16821018	1877.878640641
33	4680448	256.402201146	1011.484582389
33	4748156	258.716777972	77.592343676
33	4754144	259.114258555	273.200654538
33	4757639	259.40393105	253.67463968
33	4776835	260.447631031	334.86095042
33	4779100	260.654282429	76.083539358
33	4785288	261.215345367	322.105542517
33	4823163	263.514884219	1088.032999097
33	4841237	264.971615405	74.33107917
33	4848792	265.360325317	976.608147536
33	4855104	265.76719061	16.699359523
33	4861374	266.108281328	96.109725926
33	4885247	267.264797195	277.866985164
33	4890635	267.600691204	1506.905360231
33	4939929	269.662072127	16.520324794
33	4995444	272.454805024	539.986912365
33	5046433	275.855649315	45.181992119
33	5060759	277.451446923	23.563173612
33	5082322	279.305874506	260.463923206
33	5093146	279.783994299	540.643958832
33	5107711	280.64330589	376.96177163
33	5123892	281.475248166	281.479253807
33	5138768	282.438606638	1888.646102543
33	5156519	283.534457549	309.282658056
33	5162922	283.953116272	594.309912921
33	5163574	284.005141502	206.54766799
33	5195522	285.830351431	1647.422819775
33	5215201	287.106372993	554.332264262
33	5222789	287.426634991	466.046797849
33	5241719	288.108951375	1051.13425312
33	5285313	290.917679502	254.148552588
33	5358417	296.256030634	494.895867328
33	5362605	296.812944497	377.385670395
33	5379555	297.804020765	722.384496013
33	5380152	297.910583161	823.298450619
33	5384749	298.448975128	554.47643867
33	5440819	300.699131716	1008.342803199
33	5446647	300.955413791	149.311860782
33	5448645	301.074192319	114.952846464
33	5449904	301.162156261	632.514039903
33	5477605	302.251654989	874.389833464
33	5511950	303.773685525	961.268625697
33	5545827	305.401874708	1479.164556763
33	5555814	306.054428262	550.805282422
33	5604087	309.110300445	507.744353267
33	5618076	309.680750234	1606.557441302
33	5628002	310.65312671	1438.741949485
33	5628475	310.738921026	1300.640382058
33	5628554	310.754006727	436.409872186
33	5632417	310.988698219	254.814582813
33	5648031	311.639436794	583.268760854
33	5653650	312.301691926	871.224288595
33	5667339	312.693027889	36.095756301
33	5710410	314.240375761	290.934287277
33	5717186	314.421258301	433.723307689
33	5726149	314.71019097	595.644472551
33	5737728	315.429251165	84.298613281
33	5751969	316.220425114	518.358094751
33	5807704	318.755957956	691.649939482
33	5822469	319.710924989	615.437016327
33	5830691	320.132126715	1468.330084679
33	5831901	320.205835116	503.560074387
33	5849547	321.176479135	110.052648033
33	5855263	321.632993767	313.481663081
33	5884303	322.748895946	18.312346964
33	5933761	324.615657657	54.697334466
33	5945866	325.178050365	2774.499345527
33	5967888	326.521065431	147.323225045
33	5973046	326.84715031	292.672544
33	6025982	329.174357718	1151.894131107
33	6073306	332.760719061	135.653373245
33	6084080	333.157122281	139.298109041
33	6098977	334.084032882	1.989561005
33	6124984	335.000685005	448.581747454
33	6147585	336.228020533	224.269383865
33	6168696	337.477053647	127.884397779
33	6173671	337.879354327	211.84526845
33	6176506	338.029335482	146.762273005
33	6215856	340.939457208	918.510426707
33	6236319	341.861232609	186.793924368
33	6288139	344.552673855	104.486604336
33	6300634	344.918755261	733.307222306
33	6302054	344.989080065	1064.850238177
33	6308603	345.384564517	99.110927961
33	6317400	345.581529972	387.00285083
33	6329932	346.210366387	1134.196990459
33	6374598	348.301374394	37.179979928
33	6407361	349.200520197	1072.191516963
33	6426432	350.023345255	1408.870807026
33	6455785	351.260556412	429.964105346
33	6458542	351.386429061	235.729922102
33	6461304	351.539802473	68.509984821
33	6511816	354.419294481	2156.908259948
33	6595863	360.168349831	1233.383582468
33	6619509	362.099958322	21.968729554
33	6621301	362.373333831	100.048111042
33	6633847	363.511375629	2.094243826
33	6678565	367.004766276	404.520079275
33	6685008	367.564054404	423.691480559
33	6694982	368.372117663	1748.467609024
33	6717197	370.613332158	950.567839774
33	6782395	373.939673944	241.143083134
33	6792619	374.797021542	62.514302218
33	6839240	378.445439497	645.334612427
33	6850036	379.0449169	607.671549365
33	6853254	379.214114069	485.743388455
33	6856170	379.416777766	2144.332026363
33	6858309	379.565052826	694.032720657
33	6953339	383.165086743	1089.289582353
33	6981448	384.824321795	142.30061095
33	6990982	385.457592493	2048.17163242
33	7032651	387.745753785	938.819778803
33	7056181	389.379902257	331.673420826
33	7065469	389.871158488	56.825858478
33	7093095	391.929079735	158.06110737
33	7171089	397.318910372	38.382920116
33	7192495	398.49319804	145.519538202
33	7199922	399.303474842	851.825303668
33	7200247	399.322878102	497.542466403
33	7206068	399.790259227	1655.568356564
33	7224195	400.835682882	524.644140286
33	7230625	401.228008021	606.222374766
33	7264876	403.358431091	138.575366476
33	7281283	404.258911358	369.988055916
33	7289396	404.770559867	2184.75480392
33	7290779	404.885308526	956.401448064
33	7345021	407.780151873	112.211336511
33	7354884	408.553962152	290.517321216
33	7359914	408.750592181	15.722382628
33	7360289	408.771373886	129.76505875
33	7365713	409.156798471	1949.016871647
33	7387688	410.616400494	1827.865125203
33	7417864	411.648729491	1403.170791048
33	7443713	412.912739755	322.97359795
33	7444413	412.954634733	53.944460719
33	7487969	414.996723516	106.866889894
33	7522150	417.054974664	415.003005522
33	7523560	417.202397395	41.052275874
33	7569981	419.444855136	9.02422023
33	7596351	421.022625133	1195.234703269
33	7613118	421.964600895	374.329761986
33	7617153	422.271554224	364.452142586
33	7619002	422.383247578	278.862174358
33	7678596	425.680135553	545.876645804
33	7711537	428.038558737	342.339234036
33	7719437	428.584695328	477.408617173
33	7737126	429.219458061	236.032788841
33	7765214	430.348043021	513.98400768
33	7802798	432.126295047	170.063954581
33	7834050	433.757373813	97.992384195
33	7840623	434.270380164	518.718478367
33	7859280	434.807956969	45.722002409
33	7926790	438.524033952	169.681354045
33	7936226	439.103959097	1553.356069992
33	8026599	443.582016188	132.305390242
33	8033567	444.24535256	778.742471045
33	8038465	444.683458707	432.559236496
33	8056364	445.937534993	2064.470191589
33	8101016	449.434735437	12.361292343
33	8131028	451.477878513	1917.389598907
33	8144303	452.618725567	2639.627927017
33	8161929	453.582050993	139.569723869
33	8195878	455.880601854	102.871287451
33	8233806	457.812496934	917.644527647
33	8246191	458.732704992	374.204678339
33	8288509	460.849889165	287.809192465
33	8293374	461.280504837	1953.751679314
33	8312792	462.250079101	2275.935938734
33	8327258	463.352671637	778.972535674
33	8395844	467.155191848	633.83012522
33	8404874	467.710736367	743.109572325
33	8408418	468.010414804	25.902317769
33	8416726	468.782231948	333.811929184
33	8420207	469.120419696	1574.476593686
33	8482255	472.244169447	121.732457217
33	8488612	472.649301958	335.031736471
33	8490818	472.817296709	178.242335603
33	8539345	475.275122049	1617.833077499
33	8547948	475.967616369	869.169851069
33	8559674	476.335602764	120.888333509
33	8566945	476.67214532	246.116709677
33	8589583	478.115344144	482.551431015
33	8610267	479.577132631	92.612255817
33	8631394	480.462646396	806.195938649
33	8673856	482.567938329	271.518293151
33	8676539	482.652494114	3421.968509713
33	8697527	483.839754021	942.82683912
33	8698363	483.875693391	113.209392425
33	8703847	484.214360997	327.088680278
33	8776392	488.200684728	35.000171245
33	8828810	490.026026489	53.22119175
33	8855557	490.937855198	282.645921897
33	8869469	491.798718039	267.632757839
33	8913641	494.310065165	720.823374275
33	8918914	494.719010983	595.823052036
33	8937991	496.026461756	215.20157909
33	8950066	497.016398379	263.867722265
33	8951045	497.102788292	127.624759669
33	8983910	498.496194792	673.655836146
33	8993788	498.953810418	341.38751281
33	9020370	500.111879304	1229.660443002
33	9049841	501.73232605	172.998732733
33	9059203	502.380052021	24.259251191
33	9119456	505.090733924	1784.036108378
33	9123872	505.398726095	1270.611385302
33	9170370	507.728212693	317.216801522
33	9198092	509.523492931	352.783700349
33	9225439	511.250771142	43.916472902
33	9277718	513.648160793	50.825177823
33	9293666	514.299754075	129.782484151
33	9296869	514.569997463	278.313030875
33	9308665	515.34360091	778.114927532
33	9328240	516.313661133	2023.553313955
33	9328926	516.376821742	1230.212951984
33	9332103	516.632541149	820.314559002
33	9335829	516.931712477	1589.126900959
33	9370834	518.650115327	855.213274546
33	9386427	519.494213428	823.218768249
33	9424172	521.055625993	223.219491906
33	9432226	521.463279088	291.206214658
33	9458932	523.080265355	472.330721971
33	9460977	523.330352358	418.89765857
33	9463792	523.589869099	211.310536879
33	9471832	524.23119707	17.689792478
33	9483186	524.643581272	338.850469597
33	9496815	525.133992759	75.296920734
33	9513359	525.836002567	1204.435100682
33	9513539	525.849569383	28.295567221
33	9542249	526.961155844	264.255356695
33	9569298	527.685506962	1086.22644521
33	9582495	528.129203295	383.633407276
33	9585681	528.332633475	772.415023694
33	9619247	529.91214639	484.679421519
33	9672542	533.03225824	1268.934866512
33	9810843	539.266051117	18.693110458
33	9829343	540.969083756	610.383659202
33	9841607	541.468527804	3301.31419362
33	9871961	544.414452356	1993.385075208
33	9882271	545.465851547	735.532825963
33	9893085	546.618779012	179.0667154
33	9897257	546.950749997	13.920087112
33	9901264	547.459553589	122.910922727
33	9969705	550.939821098	1719.386185043
33	9976336	551.350905685	390.839597813
33	9999896	553.392711053	260.125709662
33	10083747	559.058557692	476.440901968
33	10088390	559.692140143	644.036179783
33	10091466	559.934175153	815.463785118
33	10102230	560.324773033	2161.401529094
33	10107661	560.752090157	1565.474674342
33	10145893	562.883433846	458.884608245
33	10170720	563.702428316	516.767177766
33	10174317	563.843239144	30.749171493
33	10176132	563.94037465	210.608023118
33	10177880	564.02634648	595.967275897
33	10232690	566.11230117	358.551067562
33	10248455	566.762231404	164.337634455
33	10291471	569.015071143	152.761725552
33	10293431	569.129550155	26.809669966
33	10306513	569.838403264	1260.622355146
33	10308374	569.985829717	1291.030022857
33	10342262	572.261077121	336.310282605
33	10375031	573.837746083	1296.600554403
33	10388784	574.67312231	36.884788685
33	10393759	574.963519203	505.427960161
33	10419766	576.405594902	60.069816811
33	10432512	577.0360531	225.126536422
33	10440697	577.203422547	239.134685359
33	10453660	577.77187135	471.677559015
33	10464002	578.037264555	25.945465534
33	10549898	580.90416155	81.010162162
33	10584696	582.2179685	2623.516710179
33	10595388	582.767851496	94.561437955
33	10609126	583.444624633	441.104325007
33	10615459	583.9596387	243.013544419
33	10628186	584.555738168	327.751776211
33	10635294	584.866327286	361.346758864
33	10637487	584.985121392	236.830015945
33	10639389	585.102595039	86.864187341
33	10655269	585.918012361	1217.99230131
33	10669151	586.750295337	1223.629362463
33	10717210	588.359168629	360.154382206
33	10784859	591.403115339	569.499702858
33	10792768	591.975571409	800.85292137
33	10816726	593.233242734	877.662602768
33	10831328	593.978461694	161.697608751
33	10857767	595.219884827	273.794251399
33	10897126	597.654220412	340.102132987
33	10932091	599.735300346	1054.564876738
33	10966030	601.613903341	189.820343383
33	10968196	601.789548422	234.464347958
33	11067737	606.332797043	221.717238754
33	11086420	607.56021565	532.355225184
33	11089064	607.793351748	881.6299729
33	11112315	609.093926332	493.223991732
33	11125457	609.709710704	272.476311709
33	11136352	610.177772095	65.608067984
33	11156282	611.312026225	431.817334048
33	11175322	611.840368705	881.370851249
33	11179197	611.947374085	297.546007305
33	11189286	612.320632177	106.666213633
33	11192688	612.445677497	571.94463602
33	11200993	612.807832359	120.079148404
33	11203866	612.891420186	411.667957013
33	11222975	613.820903021	1036.269874062
33	11256870	614.812958096	377.289980993
33	11263747	615.352490496	2415.181745549
33	11264224	615.394262949	58.221303818
33	11317213	617.486139533	228.717701892
33	11326515	617.834397773	50.237216222
33	11326872	617.855903574	1111.423555504
33	11336500	618.30054871	83.886693466
33	11406763	621.639392204	379.465617917
33	11540123	629.269549509	1.177175277
33	11544551	629.576171039	144.082588623
33	11554796	630.358300754	251.390551986
33	11604416	633.090655286	810.119325655
33	11625040	634.531839866	910.96919805
33	11651320	636.319348245	231.093200528
33	11666626	637.52184055	391.698116359
33	11680488	638.9038543	1014.828740668
33	11709775	640.528497284	55.96231196
33	11756747	643.288047228	432.801173786
33	11845663	649.742539113	863.187284134
33	11861509	651.377226442	206.298674146
33	11862842	651.500795171	482.028290585
33	11865011	651.7010334	108.655503406
33	11870699	652.112827564	760.604159234
33	11871497	652.159935369	249.912948753
33	11916032	653.981934547	96.587712649
33	11921490	654.31073699	1603.007943086
33	11944190	655.577659031	673.758106401
33	11960528	656.388261788	452.393053418
33	12004476	659.878863382	31.047602829
33	12020860	661.064573812	13.975480932
33	12048531	662.582247169	907.677840951
33	12049408	662.64946138	1016.23874955
33	12069380	663.116695211	647.72816509
33	12093050	664.304758689	651.252024928
33	12136099	666.091196721	1349.152520659
33	12153519	666.873842297	885.246980106
33	12203325	669.0255919	176.212156841
33	12204242	669.088661824	575.364454309
33	12240030	671.256587543	52.024306419
33	12242477	671.368252113	405.783754153
33	12253323	671.97128901	2461.888270431
33	12287346	674.375438347	265.769730211
33	12314700	675.87493326	748.650004097
33	12394779	680.196277904	95.644333701
33	12405550	680.825547834	952.200731487
33	12444612	682.957731781	379.256016407
33	12450452	683.269615343	279.069380312
33	12457986	684.045622176	519.799632453
33	12466800	684.336196867	338.99859227
33	12474382	684.764218519	448.356426586
33	12482669	685.342072888	1363.876976978
33	12483775	685.503769141	470.958080353
33	12526344	687.54517544	75.034937358
33	12631299	693.519588841	638.884030491
33	12651048	694.491672902	230.474927841
33	12653712	694.768802937	138.746479375
33	12676836	696.918542247	663.386308218
33	12688552	697.827739102	713.843292732
33	12689143	697.892415177	48.354526481
33	12695321	698.541310159	1655.1071215
33	12703904	698.777746189	1626.723832967
33	12705402	698.836077851	512.60239781
33	12707662	698.905153856	1714.451809693
33	12731389	700.365612014	54.217506652
33	12741107	700.840575008	550.653203477
33	12784788	703.509659116	858.671719607
33	12927713	709.127328143	1002.058695279
33	12937234	709.874225563	973.20055978
33	12939885	710.077964222	13.638327868
33	12944478	710.431509374	1325.792111703
33	12977273	712.533980213	934.346912605
33	13083576	719.144317621	543.736046635
33	13095614	720.729026465	172.552616701
33	13113191	722.228890262	253.799257347
33	13143011	725.052847576	1006.53540018
33	13146001	725.42151	705.515093823
33	13165745	726.438154901	684.714953794
33	13166921	726.640286467	1371.793105744
33	13170120	727.031820027	174.090042117
33	13170268	727.045615439	721.229235795
33	13172954	727.340525655	129.114261734
33	13177735	727.544628556	744.252895102
33	13186731	727.982129554	1532.904591209
33	13212737	729.213567222	386.809058825
33	13216860	729.302861391	3113.528617072
33	13257271	730.914351071	20.106756054
33	13260527	731.05376668	472.356998879
33	13330655	734.1963274	133.585822608
33	13334853	734.476802657	494.014971824
33	13336488	734.535292478	1262.783152348
33	13354472	735.493796118	241.995026062
33	13382580	736.810670571	592.698682102
33	13384179	736.902419738	1341.381427475
33	13430245	738.722555595	11.209875486
33	13458931	740.446867971	1022.230628408
33	13461675	740.596078101	1232.678860569
33	13473236	741.305065718	140.679587581
33	13473987	741.373918389	7.833250734
33	13480367	741.819899782	987.775649277
33	13519687	743.190174293	391.573962046
33	13548543	744.178586227	103.83439674
33	13591855	746.098504031	547.936941557
33	13640880	748.382014805	344.624468886
33	13643833	748.556628539	1633.387556085
33	13660800	749.909008107	950.843805811
33	13685910	751.45385477	174.671752312
33	13701586	752.545468712	2314.021898116
33	13708462	753.163036438	401.914907385
33	13708604	753.175176577	97.876908933
33	13751257	755.471058183	105.892943282
33	13766906	756.534932901	241.377794706
33	13772049	756.884456149	245.513121261
33	13782870	757.839315146	58.956317809
33	13869813	761.460085098	128.321940482
33	13871976	761.638713774	2511.582146341
33	13873592	761.73934087	295.96469187
33	13884052	762.268619391	679.330903387
33	13887082	762.523617908	350.383252137
33	13898182	763.257012618	1091.796106876
33	13899228	763.312235513	22.906739478
33	13910968	763.854283865	604.876114042
33	13923834	764.334843749	182.454049095
33	13925044	764.39729936	173.24361287
33	13938314	765.204658177	333.712154893
33	13992088	767.061487443	1452.97009403
33	14040638	769.134872858	1698.828069608
33	14044172	769.324756436	951.182866578
33	14046264	769.489855247	306.486063341
33	14050517	769.836734511	209.457228794
33	14067345	770.718728454	686.141134889
33	14204511	775.338247254	1596.344716038
33	14229123	776.839013821	330.831922955
33	14243624	777.509137301	143.191358649
33	14245461	777.655966768	400.455391602
33	14274792	778.716071316	1114.561214568
33	14278296	778.891350716	36.643232767
33	14284920	779.229797525	341.566005867
33	14311102	780.190220408	75.32176844
33	14351592	781.702092138	534.097173168
33	14354017	781.874677808	111.603517597
33	14386865	783.91674626	31.022372263
33	14402813	784.954500087	415.934767112
33	14402857	784.956003998	384.137215806
33	14405266	785.032476657	1313.703959516
33	14408601	785.171848611	1450.835926305
33	14414014	785.416597906	514.937089545
33	14459443	787.17674071	41.674560783
33	14500040	788.802717218	2.835958241
33	14505730	789.087025226	1185.88746158
33	14541718	790.598396309	969.248417175
33	14591597	792.661089674	69.227962467
33	14630774	794.752200085	522.014078198
33	14634432	794.894593378	910.939879622
33	14648457	795.491468445	761.024277825
33	14654887	795.870946894	1064.318387218
33	14727884	799.417637883	284.00037985
33	14742107	800.322517871	272.724241435
33	14796060	802.980186316	143.821057726
33	14797691	803.051454434	1431.778217922
33	14818043	804.279637633	48.082083906
33	14865791	806.373313059	117.259915134
33	14869396	806.627329617	763.356614565
33	14870249	806.693881404	670.674408789
33	14977429	811.645756468	709.230154167
33	14984498	812.310949881	2540.171741083
33	14988360	812.50425644	925.309359291
33	15037690	815.50394242	2475.012079736
33	15037717	815.505989757	526.968342351
33	15065863	817.234968367	389.230525226
33	15078138	817.643331225	2425.796015505
33	15084864	818.049003645	817.021768025
33	15106630	819.417414834	212.827888599
33	15163576	823.410503565	272.234786705
33	15178844	824.140694141	2159.883361264
33	15238629	827.242206986	3.58435655
33	15254036	828.147020691	499.34753111
33	15270102	829.268153276	1375.27801492
33	15270573	829.316760527	180.237784441
33	15285060	830.063929389	318.649158662
33	15287009	830.218957202	477.387156683
33	15313169	831.765996808	247.001130672
33	15317372	832.025848774	541.456984352
33	15367178	833.687030825	142.982625269
33	15406873	835.553492465	745.026063556
33	15421522	836.461868463	96.271097441
33	15462739	839.64127907	291.359563793
33	15463993	839.772463042	549.668245758
33	15465915	839.91421951	194.811787681
33	15467267	840.012166909	724.784209142
33	15480149	840.606296348	34.942384177
33	15522521	842.852880448	2741.781889754
33	15629545	848.903015991	49.836688184
33	15639889	850.020428505	1125.991851681
33	15639905	850.02106415	1102.761033648
33	15651959	851.089688804	296.832889514
33	15662421	852.030779633	379.298604686
33	15670552	852.463965953	158.124575249
33	15674457	852.791628577	790.871239849
33	15699577	854.224219842	1504.889086523
33	15714063	855.444788511	811.334505851
33	15742020	856.881516167	425.916931145
33	15774378	858.219862154	1650.042542184
33	15777822	858.41754566	1236.535024332
33	15801026	859.596144068	827.609016201
33	15874227	864.034682856	905.792280956
33	15876169	864.161388197	812.771137235
33	15881977	864.625870476	855.58830251
33	15903138	865.864694044	221.65495323
33	15903901	865.927809578	434.369242054
33	15976455	869.656983991	628.013381338
33	15980854	869.86754829	1113.626389897
33	16022892	871.715641139	1389.532446123
33	16036124	872.078558436	321.444166488
33	16061218	873.540025154	315.632505472
33	16086160	874.902737615	138.776536349
33	16098422	875.406897213	251.867467761
33	16106221	875.944605037	552.494751948
33	16141728	877.407621441	146.934076821
33	16147902	877.6034026	450.041159975
33	16168447	878.849987954	273.046534837
33	16173465	879.118285583	288.362096508
33	16273309	883.619803515	749.650421275
33	16277988	883.840766166	748.79560039
33	16285912	884.352357956	18.413180077
33	16327752	886.626777434	420.822158013
33	16335174	887.249655347	107.412507383
33	16344498	887.695683489	689.466810911
33	16372968	889.378114889	132.538148689
33	16379442	889.900103727	3190.460142564
33	16400597	891.72234593	943.461975767
33	16428789	893.591238913	359.645317851
33	16431650	893.78227362	1013.604010729
33	16438537	894.173873813	26.169131167
33	16445662	894.714407577	766.911350091
33	16446094	894.780675096	931.419959983
33	16453973	895.294754469	471.077857957
33	16515490	897.694991892	36.072366088
33	16522938	898.400539758	5.057928921
33	16551877	900.218912563	251.647825107
33	16557794	900.520476218	1002.972088871
33	16562004	900.687443591	74.628588851
33	16571891	901.471027585	179.395359834
33	16580774	901.941687747	2185.528751663
33	16592508	902.220298537	224.512583971
33	16620640	903.7388852	1149.395458621
33	16640609	904.616037042	409.420340432
33	16699075	907.379934417	371.323208515
33	16725729	908.955258188	228.810388373
33	16744426	909.461392112	8.528406987
33	16790263	911.228514829	537.054085856
33	16847054	914.324027685	97.858736035
33	16862993	915.138947266	200.989420347
33	16886995	916.619773303	158.107332434
33	16896266	917.302127046	103.406005596
33	16921068	918.284131985	1243.3258282
33	16937685	919.252733993	458.679348696
33	16939353	919.37493954	217.68767512
33	16949122	919.808976747	25.856175734
33	17030173	923.723187842	171.557410852
33	17031818	923.841943813	726.946301223
33	17043579	924.214968657	205.287224096
33	17056034	924.884036123	181.503788636
33	17075647	926.411976919	143.226307819
33	17076189	926.456257881	406.99357295
33	17082436	927.116260602	486.617817227
33	17091123	928.021412478	39.954565348
33	17095341	928.5614947	890.384306563
33	17129612	930.564361215	1465.790310234
33	17130547	930.634026869	159.094331216
33	17134709	930.865300588	576.89223413
33	17180368	933.000218185	26.038998091
33	17216001	934.494750644	555.280872737
33	17217786	934.642733076	1307.713738916
33	17234486	935.139714868	414.723309205
33	17262082	936.367366795	444.926078198