version 2
run PastryDHT-0-20211207-11:23:01-4660
attr Lifetime 100s
attr configname PastryDHT
attr datetime 20211207-11:23:01
attr experiment PastryDHT
attr inifile configs.ini
attr iterationvars $Lifetime=100s
attr iterationvars2 "$Lifetime=100s, $repetition=0"
attr measurement $Lifetime=100s
attr network oversim.underlay.simpleunderlay.SimpleUnderlayNetwork
attr processid 4660
attr repetition 0
attr replication #0
attr resultdir results
attr runnumber 0
attr seedset 0

vector 1  SimpleUnderlayNetwork.globalObserver.globalStatistics  "GlobalNodeList: Number of nodes"  ETV
vector 2  SimpleUnderlayNetwork.globalObserver.globalStatistics  "GlobalDhtTestMap: Number of stored DHT entries"  ETV
vector 3  SimpleUnderlayNetwork.globalObserver.globalStatistics  "LifetimeChurn: Time between deletes"  ETV
vector 4  SimpleUnderlayNetwork.globalObserver.globalStatistics  "LifetimeChurn: Session Time"  ETV
vector 5  SimpleUnderlayNetwork.globalObserver.globalStatistics  "LifetimeChurn: Time between creates"  ETV
1	28022504	200	1083
1	40534642	250	1086
1	52415788	300	1072
1	64502760	350	1082
1	76602643	400	1100
1	88999948	450	1096
1	101423829	500	1092
1	113962107	550	1090
1	127198488	600	1125
1	139947737	650	1092
1	152215933	700	1096
1	164592827	750	1110
1	176986254	800	1098
1	189418136	850	1109
1	201859402	900	1073
1	214242751	950	1091
1	226374555	1000	1051
1	239453779	1050	1103
1	251602646	1100	1071
1	263873963	1150	1095
2	28022505	200	1033
2	30458203	210	1163
2	32847024	220	1286
2	35337788	230	1398
2	37907305	240	1504
2	40534643	250	1617
2	42949262	260	1734
2	45223447	270	1841
2	47658129	280	1960
2	50104217	290	2083
2	52415789	300	2197
2	54744286	310	2300
2	57173203	320	2421
2	59600867	330	2523
2	62118277	340	2657
2	64502761	350	2775
2	66956747	360	2904
2	69398750	370	3004
2	71817112	380	3116
2	74124311	390	3247
2	76602644	400	3355
2	79093874	410	3395
2	81553568	420	3428
2	83999667	430	3432
2	86524888	440	3434
2	88999949	450	3439
2	91405705	460	3457
2	94144364	470	3479
2	96628916	480	3474
2	99057235	490	3468
2	101423830	500	3469
2	103875517	510	3466
2	106293266	520	3452
2	108706369	530	3444
2	111325505	540	3449
2	113962108	550	3432
2	116589730	560	3435
2	119344331	570	3443
2	121902387	580	3446
2	124592767	590	3439
2	127198489	600	3441
2	129822934	610	3451
2	132575990	620	3441
2	135030121	630	3458
2	137412303	640	3439
2	139947738	650	3446
2	142324938	660	3429
2	144770848	670	3442
2	147107061	680	3459
2	149594919	690	3431
2	152215934	700	3421
2	154765492	710	3442
2	157399465	720	3438
2	159780897	730	3429
2	162158968	740	3420
2	164592828	750	3413
2	167223729	760	3422
2	169697215	770	3421
2	172178704	780	3459
2	174498350	790	3435
2	176986255	800	3441
2	179293560	810	3442
2	181703780	820	3435
2	184254328	830	3471
2	186826170	840	3497
2	189418137	850	3510
2	191875001	860	3482
2	194370827	870	3469
2	196864897	880	3475
2	199355497	890	3485
2	201859403	900	3478
2	204275469	910	3484
2	206909641	920	3471
2	209459395	930	3451
2	211856402	940	3444
2	214242752	950	3451
2	216906004	960	3458
2	219332965	970	3461
2	221804089	980	3452
2	224126352	990	3444
2	226374556	1000	3452
2	228907326	1010	3465
2	231627758	1020	3449
2	234382642	1030	3456
2	236933980	1040	3437
2	239453780	1050	3426
2	241854468	1060	3403
2	244216535	1070	3422
2	246774402	1080	3407
2	249183355	1090	3427
2	251602647	1100	3394
2	254171932	1110	3378
2	256650678	1120	3385
2	259082184	1130	3376
2	261566297	1140	3355
2	263873964	1150	3351
2	266413962	1160	3387
2	268884678	1170	3388
2	271440866	1180	3394
2	273733073	1190	3347
3	28028644	200.022768263	0.023741759
3	28031631	200.032825845	0.010057582
3	28112655	200.354475138	0.321649293
3	28147794	200.498920158	0.14444502
3	28179413	200.616424639	0.117504481
3	28224248	200.765310246	0.148885607
3	28231024	200.790147388	0.024837142
3	28233784	200.801354048	0.01120666
3	28278389	200.97489609	0.173542042
3	28278802	200.976091206	0.001195116
3	28287566	201.014838062	0.038746856
3	28292405	201.036504355	0.021666293
3	28360554	201.313701348	0.277196993
3	28378711	201.399638688	0.08593734
3	28396205	201.46665673	0.067018042
3	28418031	201.566999227	0.100342497
3	28424296	201.589269009	0.022269782
3	28452177	201.680637607	0.091368598
3	28471918	201.753687843	0.073050236
3	28505341	201.898182375	0.144494532
3	28542398	202.030923523	0.132741148
3	28559233	202.095047615	0.064124092
3	28576856	202.149920126	0.054872511
3	28626483	202.326192445	0.176272319
3	28648833	202.398452624	0.072260179
3	28672588	202.494157621	0.095704997
3	28685833	202.560131788	0.065974167
3	28757752	202.824007273	0.263875485
3	28770430	202.877132354	0.053125081
3	28782658	202.924752559	0.047620205
3	28852717	203.263899876	0.339147317
3	28885544	203.404217627	0.140317751
3	28907520	203.511010012	0.106792385
3	28916802	203.550984018	0.039974006
3	28953536	203.67847609	0.127492072
3	28981049	203.781184855	0.102708765
3	29007744	203.870122136	0.088937281
3	29081523	204.170729581	0.300607445
3	29086172	204.19048938	0.019759799
3	29087118	204.194767628	0.004278248
3	29121110	204.333210137	0.138442509
3	29144934	204.422483367	0.08927323
3	29152741	204.457864467	0.0353811
3	29157753	204.479184784	0.021320317
3	29162306	204.500450782	0.021265998
3	29172987	204.548385333	0.047934551
3	29176321	204.565312317	0.016926984
3	29193649	204.657044116	0.091731799
3	29206110	204.728047454	0.071003338
3	29298507	205.118710245	0.390662791
3	29307131	205.148345135	0.02963489
3	29314583	205.175947625	0.02760249
3	29337781	205.288939912	0.112992287
3	29340288	205.301071182	0.01213127
3	29348939	205.339950518	0.038879336
3	29354200	205.360658794	0.020708276
3	29391534	205.532088646	0.171429852
3	29401470	205.576642072	0.044553426
3	29450285	205.782641335	0.205999263
3	29490530	205.967387997	0.184746662
3	29515019	206.100091351	0.132703354
3	29518682	206.12120602	0.021114669
3	29619213	206.624397663	0.503191643
3	29722168	207.077402029	0.453004366
3	29746814	207.158744364	0.081342335
3	29874275	207.679339035	0.520594671
3	29909532	207.786094645	0.10675561
3	29950369	207.950507504	0.164412859
3	29963478	208.038787807	0.088280303
3	29964379	208.044874347	0.00608654
3	29992155	208.194505977	0.14963163
3	30027579	208.344978681	0.150472704
3	30034532	208.373591821	0.02861314
3	30100540	208.681586499	0.307994678
3	30122652	208.754035082	0.072448583
3	30159627	208.885308104	0.131273022
3	30228924	209.134911702	0.249603598
3	30236135	209.160833489	0.025921787
3	30246451	209.195593056	0.034759567
3	30262702	209.258005477	0.062412421
3	30276142	209.310838157	0.05283268
3	30305786	209.443251023	0.132412866
3	30312901	209.472873851	0.029622828
3	30337773	209.577655848	0.104781997
3	30376878	209.704130332	0.126474484
3	30460665	210.009354458	0.305224126
3	30465685	210.034534949	0.025180491
3	30473999	210.074255755	0.039720806
3	30488430	210.154975392	0.080719637
3	30504791	210.239829291	0.084853899
3	30549290	210.49001296	0.250183669
3	30554020	210.517508945	0.027495985
3	30554767	210.522499981	0.004991036
3	30555552	210.527708038	0.005208057
3	30557259	210.53674424	0.009036202
3	30557271	210.536906437	0.000162197
3	30562097	210.566406432	0.029499995
3	30562520	210.568925818	0.002519386
3	30562937	210.571471849	0.002546031
3	30605748	210.753373854	0.181902005
3	30620432	210.805997637	0.052623783
3	30647153	210.890602908	0.084605271
3	30675816	210.969261892	0.078658984
3	30691981	211.023214622	0.05395273
3	30713238	211.104068902	0.08085428
3	30721661	211.131867172	0.02779827
3	30724805	211.142229036	0.010361864
3	30728940	211.157452066	0.01522303
3	30767883	211.286381161	0.128929095
3	30868564	211.630464448	0.344083287
3	30869173	211.633055721	0.002591273
3	30953741	211.969734141	0.33667842
3	30964532	212.014408873	0.044674732
3	30969174	212.035092955	0.020684082
3	30976644	212.070980459	0.035887504
3	30987542	212.12659053	0.055610071
3	30996087	212.173649334	0.047058804
3	31053485	212.475504757	0.301855423
3	31060482	212.52879774	0.053292983
3	31088409	212.678255067	0.149457327
3	31091063	212.691210272	0.012955205
3	31128159	212.825073453	0.133863181
3	31232702	213.11301644	0.287942987
3	31253350	213.199347322	0.086330882
3	31262930	213.241306038	0.041958716
3	31305106	213.399503939	0.158197901
3	31307583	213.408289653	0.008785714
3	31316415	213.442738133	0.03444848
3	31316685	213.444065	0.001326867
3	31352372	213.54863006	0.10456506
3	31409662	213.745450673	0.196820613
3	31426486	213.819977147	0.074526474
3	31448481	213.904701898	0.084724751
3	31484650	214.056415411	0.151713513
3	31498045	214.114245332	0.057829921
3	31558459	214.340408751	0.226163419
3	31615502	214.633909783	0.293501032
3	31616938	214.641901104	0.007991321
3	31629779	214.688058425	0.046157321
3	31633362	214.699639862	0.011581437
3	31690979	214.889562835	0.189922973
3	31728695	215.037955107	0.148392272
3	31743953	215.102158654	0.064203547
3	31747638	215.120259536	0.018100882
3	31788239	215.275772707	0.155513171
3	31877135	215.650838178	0.375065471
3	31888951	215.688216249	0.037378071
3	31901153	215.729234852	0.041018603
3	31922520	215.816198472	0.08696362
3	31952002	215.945619855	0.129421383
3	32043606	216.330962886	0.385343031
3	32081985	216.459962204	0.128999318
3	32113349	216.584517607	0.124555403
3	32135681	216.694494976	0.109977369
3	32178106	216.917674966	0.22317999
3	32197330	217.015448899	0.097773933
3	32208076	217.067355708	0.051906809
3	32230814	217.151105525	0.083749817
3	32267244	217.277287395	0.12618187
3	32274687	217.304014457	0.026727062
3	32317540	217.479930197	0.17591574
3	32335405	217.575820927	0.09589073
3	32393557	217.826270683	0.250449756
3	32411758	217.906120073	0.07984939
3	32458025	218.172660881	0.266540808
3	32474885	218.242905744	0.070244863
3	32536498	218.509643157	0.266737413
3	32537620	218.513444264	0.003801107
3	32571657	218.657401751	0.143957487
3	32573336	218.663749137	0.006347386
3	32589495	218.72568849	0.061939353
3	32593115	218.740771517	0.015083027
3	32600133	218.771394076	0.030622559
3	32632461	218.919957666	0.14856359
3	32654722	219.008361585	0.088403919
3	32670502	219.084828895	0.07646731
3	32682689	219.146783451	0.061954556
3	32688203	219.172134096	0.025350645
3	32697368	219.217886063	0.045751967
3	32701204	219.238598439	0.020712376
3	32750534	219.525280019	0.28668158
3	32753297	219.541740939	0.01646092
3	32757690	219.56496633	0.023225391
3	32769846	219.639695159	0.074728829
3	32785436	219.724340795	0.084645636
3	32811708	219.829495632	0.105154837
3	32842623	219.972843729	0.143348097
3	32846437	219.996944367	0.024100638
3	32850214	220.018492423	0.021548056
3	32865013	220.113815331	0.095322908
3	32877159	220.178628527	0.064813196
3	32888413	220.239263474	0.060634947
3	32928911	220.393535716	0.154272242
3	32966312	220.541074814	0.147539098
3	33005474	220.678967197	0.137892383
3	33006810	220.68406296	0.005095763
3	33023341	220.75624002	0.07217706
3	33045812	220.86542727	0.10918725
3	33102362	221.083644155	0.218216885
3	33112578	221.12743029	0.043786135
3	33119534	221.154868266	0.027437976
3	33121180	221.161680897	0.006812631
3	33154206	221.292006926	0.130326029
3	33158890	221.310852903	0.018845977
3	33164611	221.336994222	0.026141319
3	33186743	221.443540029	0.106545807
3	33190310	221.462505222	0.018965193
3	33196982	221.499133097	0.036627875
3	33237398	221.710489589	0.211356492
3	33267434	221.831277616	0.120788027
3	33327255	222.019636881	0.188359265
3	33378810	222.217684388	0.198047507
3	33390514	222.269314405	0.051630017
3	33431897	222.420720016	0.151405611
3	33456383	222.530053125	0.109333109
3	33530154	222.801042537	0.270989412
3	33539373	222.826449589	0.025407052
3	33572305	222.95502761	0.128578021
3	33573362	222.959668883	0.004641273
3	33584050	222.998588204	0.038919321
3	33598826	223.059039047	0.060450843
3	33628338	223.17364331	0.114604263
3	33642941	223.216909802	0.043266492
3	33727428	223.575660242	0.35875044
3	33755177	223.696126103	0.120465861
3	33766605	223.748322878	0.052196775
3	33778935	223.804211612	0.055888734
3	33792244	223.86169968	0.057488068
3	33797847	223.878000119	0.016300439
3	33817706	223.944715878	0.066715759
3	33827549	223.979545833	0.034829955
3	33829408	223.986498143	0.00695231
3	33844083	224.044501066	0.058002923
3	33861493	224.103095244	0.058594178
3	33866919	224.119852027	0.016756783
3	33868893	224.125467357	0.00561533
3	33871834	224.134053832	0.008586475
3	33880108	224.160432703	0.026378871
3	33920139	224.309109154	0.148676451
3	33930435	224.34581059	0.036701436
3	33956779	224.434507785	0.088697195
3	34014553	224.637789603	0.203281818
3	34044558	224.75426087	0.116471267
3	34078626	224.860877804	0.106616934
3	34084181	224.880272117	0.019394313
3	34104123	224.957653261	0.077381144
3	34111086	224.979781114	0.022127853
3	34116642	224.997971954	0.01819084
3	34137073	225.093467736	0.095495782
3	34157965	225.193190051	0.099722315
3	34192215	225.349415312	0.156225261
3	34198280	225.378683022	0.02926771
3	34236603	225.576886179	0.198203157
3	34255317	225.655668053	0.078781874
3	34263206	225.684834174	0.029166121
3	34274795	225.729053185	0.044219011
3	34297987	225.830532056	0.101478871
3	34327381	225.952406447	0.121874391
3	34336008	225.985908039	0.033501592
3	34515911	226.603228054	0.617320015
3	34532685	226.676490165	0.073262111
3	34557874	226.765628803	0.089138638
3	34582925	226.876242691	0.110613888
3	34590888	226.898022414	0.021779723
3	34622871	227.020209558	0.122187144
3	34665962	227.257755254	0.237545696
3	34683484	227.354836238	0.097080984
3	34715244	227.543434254	0.188598016
3	34716120	227.547915646	0.004481392
3	34735090	227.6336671	0.085751454
3	34749050	227.687171942	0.053504842
3	34753935	227.705228714	0.018056772
3	34836932	228.007143464	0.30191475
3	34859973	228.11307758	0.105934116
3	34874419	228.171872578	0.058794998
3	34877865	228.186218107	0.014345529
3	34890351	228.232250456	0.046032349
3	34893787	228.245786585	0.013536129
3	34914566	228.31193454	0.066147955
3	34923519	228.339036352	0.027101812
3	34929241	228.360629693	0.021593341
3	34954541	228.463351063	0.10272137
3	34954779	228.464473386	0.001122323
3	34954826	228.464555477	8.2091e-005
3	34967588	228.519655767	0.05510029
3	34994339	228.631359571	0.111703804
3	35004405	228.673315212	0.041955641
3	35026428	228.756305412	0.0829902
3	35031076	228.777419905	0.021114493
3	35050970	228.854840802	0.077420897
3	35059043	228.879345128	0.024504326
3	35086293	228.976806443	0.097461315
3	35093793	229.014620745	0.037814302
3	35104596	229.07326156	0.058640815
3	35168676	229.353863497	0.280601937
3	35194957	229.460457973	0.106594476
3	35204703	229.50936509	0.048907117
3	35216383	229.558958971	0.049593881
3	35249735	229.674060351	0.11510138
3	35255462	229.689723025	0.015662674
3	35255887	229.691220986	0.001497961
3	35257582	229.696157823	0.004936837
3	35260009	229.703816123	0.0076583
3	35271131	229.743886597	0.040070474
3	35301740	229.849375922	0.105489325
3	35307981	229.875407082	0.02603116
3	35348005	230.041475334	0.166068252
3	35356997	230.07475837	0.033283036
3	35378831	230.159290854	0.084532484
3	35415383	230.335162132	0.175871278
3	35420902	230.356371214	0.021209082
3	35442389	230.44573874	0.089367526
3	35453775	230.502813121	0.057074381
3	35455503	230.511573852	0.008760731
3	35461963	230.541515972	0.02994212
3	35462938	230.546720617	0.005204645
3	35571111	230.900195147	0.35347453
3	35579230	230.929901668	0.029706521
3	35618399	231.080438096	0.150536428
3	35624648	231.109427438	0.028989342
3	35630304	231.136493459	0.027066021
3	35631517	231.141880443	0.005386984
3	35752030	231.573722335	0.431841892
3	35780911	231.705948673	0.132226338
3	35834111	231.939166386	0.233217713
3	35865757	232.061086117	0.121919731
3	35887904	232.122631224	0.061545107
3	35910098	232.204754085	0.082122861
3	35912662	232.214462963	0.009708878
3	35923466	232.254664462	0.040201499
3	35925889	232.263897688	0.009233226
3	35973592	232.430513689	0.166616001
3	35992980	232.506335818	0.075822129
3	36057860	232.729810391	0.223474573
3	36090120	232.830087945	0.100277554
3	36144065	232.996197012	0.166109067
3	36174527	233.077996393	0.081799381
3	36192749	233.136932388	0.058935995
3	36227358	233.286828892	0.149896504
3	36229632	233.29671602	0.009887128
3	36247302	233.369325289	0.072609269
3	36250961	233.383582938	0.014257649
3	36260570	233.423634726	0.040051788
3	36266205	233.445792067	0.022157341
3	36304408	233.583115579	0.137323512
3	36369157	233.838628498	0.255512919
3	36389466	233.924319099	0.085690601
3	36396548	233.95880122	0.034482121
3	36422047	234.070979151	0.112177931
3	36430440	234.103395364	0.032416213
3	36439616	234.141020964	0.0376256
3	36442723	234.153028236	0.012007272
3	36443047	234.154506922	0.001478686
3	36480663	234.301683776	0.147176854
3	36523849	234.442314804	0.140631028
3	36529692	234.465426302	0.023111498
3	36584024	234.694519702	0.2290934
3	36591313	234.71862635	0.024106648
3	36664535	234.968700186	0.250073836
3	36679602	235.020361721	0.051661535
3	36700261	235.101245316	0.080883595
3	36718689	235.167479407	0.066234091
3	36728558	235.20507461	0.037595203
3	36771866	235.382695872	0.177621262
3	36822721	235.611852333	0.229156461
3	36858111	235.786477481	0.174625148
3	36862522	235.808171636	0.021694155
3	36915406	236.018609749	0.210438113
3	36981645	236.328756043	0.310146294
3	37039160	236.496958026	0.168201983
3	37062720	236.592072922	0.095114896
3	37075948	236.652668715	0.060595793
3	37090330	236.723242328	0.070573613
3	37107240	236.777251789	0.054009461
3	37108853	236.783627737	0.006375948
3	37158269	236.974658827	0.19103109
3	37169317	237.023805558	0.049146731
3	37179018	237.068469804	0.044664246
3	37205792	237.193376504	0.1249067
3	37232164	237.28685414	0.093477636
3	37232995	237.289553897	0.002699757
3	37249075	237.35895196	0.069398063
3	37258274	237.398960025	0.040008065
3	37275692	237.473330092	0.074370067
3	37310313	237.635187694	0.161857602
3	37315266	237.663780389	0.028592695
3	37325037	237.726017893	0.062237504
3	37351905	237.882473716	0.156455823
3	37352580	237.885720652	0.003246936
3	37366802	237.95300991	0.067289258
3	37404896	238.09139438	0.13838447
3	37405835	238.094077583	0.002683203
3	37459861	238.301154428	0.207076845
3	37469409	238.343313741	0.042159313
3	37498280	238.452648088	0.109334347
3	37503043	238.472319141	0.019671053
3	37511854	238.51078089	0.038461749
3	37529439	238.582270222	0.071489332
3	37537869	238.620790306	0.038520084
3	37571058	238.739103534	0.118313228
3	37627398	238.915148717	0.176045183
3	37663299	239.029310851	0.114162134
3	37678443	239.080281688	0.050970837
3	37700188	239.169463843	0.089182155
3	37711609	239.222529649	0.053065806
3	37737114	239.325232129	0.10270248
3	37772214	239.459708514	0.134476385
3	37825962	239.649339889	0.189631375
3	37859346	239.780764003	0.131424114
3	37874652	239.84580476	0.065040757
3	37888691	239.914233207	0.068428447
3	37899822	239.966750778	0.052517571
3	37907314	240.000088259	0.033337481
3	37915362	240.036568101	0.036479842
3	37931229	240.114326989	0.077758888
3	37940794	240.170344841	0.056017852
3	37973338	240.306270835	0.135925994
3	37985191	240.346470542	0.040199707
3	37990652	240.363205574	0.016735032
3	38026894	240.528772935	0.165567361
3	38053586	240.622747693	0.093974758
3	38060138	240.646835754	0.024088061
3	38074416	240.71151306	0.064677306
3	38085586	240.747565677	0.036052617
3	38115695	240.836061693	0.088496016
3	38127911	240.8762046	0.040142907
3	38134064	240.893256666	0.017052066
3	38150101	240.941956855	0.048700189
3	38168948	241.00569281	0.063735955
3	38170317	241.010410031	0.004717221
3	38221527	241.187458499	0.177048468
3	38240113	241.273567097	0.086108598
3	38283585	241.425856297	0.1522892
3	38307128	241.493314352	0.067458055
3	38321753	241.541600563	0.048286211
3	38395771	241.809052783	0.26745222
3	38409454	241.861425781	0.052372998
3	38411797	241.869558967	0.008133186
3	38536488	242.361383055	0.491824088
3	38552374	242.434600583	0.073217528
3	38557943	242.458632723	0.02403214
3	38566034	242.499402784	0.040770061
3	38601571	242.61377985	0.114377066
3	38676085	242.844268937	0.230489087
3	38703143	242.944886544	0.100617607
3	38721924	243.017074734	0.07218819
3	38737787	243.078428541	0.061353807
3	38775238	243.231664995	0.153236454
3	38782234	243.253023185	0.02135819
3	38790588	243.279667227	0.026644042
3	38800001	243.307472315	0.027805088
3	38872213	243.526562884	0.219090569
3	38880049	243.550569459	0.024006575
3	38900879	243.628038544	0.077469085
3	38916405	243.685890179	0.057851635
3	38923159	243.711407129	0.02551695
3	38935830	243.76358363	0.052176501
3	38956379	243.839583517	0.075999887
3	39051636	244.198386175	0.358802658
3	39055246	244.212162114	0.013775939
3	39100372	244.402703879	0.190541765
3	39119384	244.471483323	0.068779444
3	39140048	244.540247513	0.06876419
3	39154571	244.590601502	0.050353989
3	39161302	244.610362272	0.01976077
3	39164553	244.621016404	0.010654132
3	39169921	244.63668208	0.015665676
3	39172616	244.6459437	0.00926162
3	39179583	244.668758807	0.022815107
3	39194897	244.720020076	0.051261269
3	39218645	244.817238994	0.097218918
3	39258536	245.011788586	0.194549592
3	39260978	245.023020066	0.01123148
3	39272814	245.069475444	0.046455378
3	39287332	245.126998357	0.057522913
3	39327032	245.29907731	0.172078953
3	39352057	245.40142832	0.10235101
3	39377972	245.489605441	0.088177121
3	39420097	245.630904741	0.1412993
3	39438911	245.693235647	0.062330906
3	39443452	245.707857607	0.01462196
3	39459868	245.767978995	0.060121388
3	39469070	245.802548436	0.034569441
3	39477261	245.841670483	0.039122047
3	39492756	245.909909759	0.068239276
3	39512047	245.987674089	0.07776433
3	39567854	246.159134456	0.171460367
3	39581773	246.200798616	0.04166416
3	39585826	246.214318629	0.013520013
3	39587332	246.220228863	0.005910234
3	39594943	246.24311656	0.022887697
3	39612793	246.308847251	0.065730691
3	39629978	246.374893687	0.066046436
3	39630421	246.377012601	0.002118914
3	39630435	246.377095726	8.3125e-005
3	39643907	246.432548365	0.055452639
3	39699764	246.651536173	0.218987808
3	39713687	246.717496374	0.065960201
3	39718760	246.738672802	0.021176428
3	39810229	247.168888982	0.43021618
3	39810681	247.170583197	0.001694215
3	39824819	247.218493442	0.047910245
3	39829943	247.236215549	0.017722107
3	39876509	247.428890032	0.192674483
3	39938999	247.656799631	0.227909599
3	39940319	247.663277739	0.006478108
3	39949655	247.702489153	0.039211414
3	39953615	247.720981993	0.01849284
3	39963129	247.76084948	0.039867487
3	39981665	247.846494344	0.085644864
3	39987384	247.881754082	0.035259738
3	39998896	247.93498461	0.053230528
3	40035746	248.082041391	0.147056781
3	40049487	248.129382452	0.047341061
3	40078562	248.224112505	0.094730053
3	40114713	248.354750592	0.130638087
3	40127463	248.403094286	0.048343694
3	40133459	248.433461178	0.030366892
3	40140737	248.473244044	0.039782866
3	40142912	248.484055625	0.010811581
3	40152913	248.536194259	0.052138634
3	40185335	248.676590053	0.140395794
3	40222290	248.777001661	0.100411608
3	40308576	249.06700415	0.290002489
3	40367236	249.258842343	0.191838193
3	40440677	249.593344648	0.334502305
3	40466339	249.713460942	0.120116294
3	40506332	249.890546715	0.177085773
3	40534361	249.998785919	0.108239204
3	40609979	250.361390185	0.362604266
3	40618732	250.405441526	0.044051341
3	40634219	250.467148779	0.061707253
3	40653016	250.54069952	0.073550741
3	40661854	250.573967535	0.033268015
3	40666590	250.58880265	0.014835115
3	40702863	250.701511229	0.112708579
3	40714673	250.737051435	0.035540206
3	40731874	250.796012985	0.05896155
3	40754996	250.874303481	0.078290496
3	40780085	250.955946931	0.08164345
3	40781652	250.960434369	0.004487438
3	40828856	251.1268793	0.166444931
3	40848457	251.198108534	0.071229234
3	40871098	251.290089565	0.091981031
3	40927839	251.567865863	0.277776298
3	40958970	251.70807606	0.140210197
3	40969708	251.75301902	0.04494296
3	40970925	251.759671779	0.006652759
3	40975661	251.78108547	0.021413691
3	41001106	251.908807267	0.127721797
3	41001582	251.910461198	0.001653931
3	41031030	252.025657208	0.11519601
3	41033511	252.0368728	0.011215592
3	41037059	252.054108396	0.017235596
3	41049202	252.109919795	0.055811399
3	41102296	252.34187242	0.231952625
3	41155433	252.583207371	0.241334951
3	41188787	252.706498674	0.123291303
3	41207421	252.807297236	0.100798562
3	41257700	252.986573572	0.179276336
3	41280050	253.083122626	0.096549054
3	41282136	253.090517597	0.007394971
3	41299685	253.172109974	0.081592377
3	41323061	253.296975384	0.12486541
3	41361672	253.46197593	0.165000546
3	41401649	253.643087369	0.181111439
3	41403682	253.652959516	0.009872147
3	41413798	253.695318085	0.042358569
3	41426762	253.756235637	0.060917552
3	41431671	253.779603572	0.023367935
3	41432593	253.784929357	0.005325785
3	41489879	254.013390278	0.228460921
3	41550567	254.27743854	0.264048262
3	41555547	254.295664241	0.018225701
3	41585788	254.433361958	0.137697717
3	41609739	254.55357427	0.120212312
3	41619651	254.597548488	0.043974218
3	41637021	254.673410527	0.075862039
3	41674081	254.839615444	0.166204917
3	41686979	254.888045987	0.048430543
3	41687992	254.891485015	0.003439028
3	41724490	255.01263916	0.121154145
3	41733109	255.045051449	0.032412289
3	41788262	255.290133829	0.24508238
3	41795508	255.323493926	0.033360097
3	41805689	255.359840187	0.036346261
3	41811342	255.379729234	0.019889047
3	41834311	255.456827404	0.07709817
3	41867916	255.551860796	0.095033392
3	41892057	255.616584266	0.06472347
3	41984211	256.044936478	0.428352212
3	41988518	256.071087197	0.026150719
3	42007917	256.163875118	0.092787921
3	42046370	256.316856918	0.1529818
3	42052410	256.343475404	0.026618486
3	42055078	256.354779289	0.011303885
3	42073865	256.440729676	0.085950387
3	42089707	256.525262531	0.084532855
3	42151866	256.814914291	0.28965176
3	42170278	256.894881711	0.07996742
3	42264389	257.265134382	0.370252671
3	42266120	257.273665715	0.008531333
3	42318262	257.45932422	0.185658505
3	42332297	257.503784932	0.044460712
3	42339801	257.530906244	0.027121312
3	42345146	257.551592977	0.020686733
3	42353524	257.577299222	0.025706245
3	42378187	257.657008683	0.079709461
3	42418919	257.857885218	0.200876535
3	42420790	257.86579375	0.007908532
3	42451016	257.995364313	0.129570563
3	42454357	258.006751419	0.011387106
3	42502900	258.185419926	0.178668507
3	42521607	258.261609467	0.076189541
3	42534279	258.316515877	0.05490641
3	42536093	258.324880242	0.008364365
3	42537969	258.33267759	0.007797348
3	42548745	258.381554004	0.048876414
3	42550716	258.389232175	0.007678171
3	42576568	258.493676424	0.104444249
3	42586568	258.53344146	0.039765036
3	42602284	258.597691123	0.064249663
3	42626989	258.697472727	0.099781604
3	42635912	258.731714537	0.03424181
3	42682218	258.919323306	0.187608769
3	42689811	258.960475385	0.041152079
3	42693684	258.978112733	0.017637348
3	42694181	258.980614873	0.00250214
3	42699827	259.000988704	0.020373831
3	42707372	259.025363939	0.024375235
3	42716862	259.06039754	0.035033601
3	42727766	259.096289068	0.035891528
3	42753706	259.19132657	0.095037502
3	42754764	259.196396683	0.005070113
3	42776568	259.288503151	0.092106468
3	42776804	259.28902328	0.000520129
3	42804973	259.402708383	0.113685103
3	42830369	259.499282365	0.096573982
3	42832859	259.510691095	0.01140873
3	42844140	259.562236611	0.051545516
3	42847997	259.578516986	0.016280375
3	42893965	259.756293965	0.177776979
3	42933668	259.941541062	0.185247097
3	42945312	259.987883409	0.046342347
3	42977635	260.103741096	0.115857687
3	42981938	260.121024534	0.017283438
3	43082688	260.613227906	0.492203372
3	43124058	260.781409121	0.168181215
3	43140669	260.841924131	0.06051501
3	43231140	261.215972031	0.3740479
3	43255797	261.338791628	0.122819597
3	43261481	261.363719422	0.024927794
3	43330386	261.648905212	0.28518579
3	43330435	261.649259998	0.000354786
3	43375200	261.855870853	0.206610855
3	43401856	261.966122515	0.110251662
3	43482645	262.336675377	0.370552862
3	43489912	262.362036946	0.025361569
3	43491533	262.368039195	0.006002249
3	43575391	262.757100884	0.389061689
3	43679307	263.147393756	0.390292872
3	43688764	263.178295098	0.030901342
3	43781858	263.53090288	0.352607782
3	43802720	263.610974059	0.080071179
3	43830896	263.747383625	0.136409566
3	43873384	263.910313585	0.16292996
3	43876112	263.919371217	0.009057632
3	43894682	263.997778262	0.078407045
3	43903308	264.026297107	0.028518845
3	43910805	264.049130173	0.022833066
3	43962212	264.262774096	0.213643923
3	44008824	264.47279589	0.210021794
3	44035467	264.612857687	0.140061797
3	44038319	264.627212913	0.014355226
3	44055970	264.727261807	0.100048894
3	44057657	264.736886276	0.009624469
3	44083931	264.873684356	0.13679808
3	44084453	264.876569875	0.002885519
3	44126017	265.058350807	0.181780932
3	44133926	265.09054234	0.032191533
3	44174232	265.218694446	0.128152106
3	44224593	265.394234984	0.175540538
3	44228186	265.410358525	0.016123541
3	44231753	265.425363033	0.015004508
3	44267096	265.574951429	0.149588396
3	44295560	265.718356339	0.14340491
3	44306187	265.768595353	0.050239014
3	44323376	265.838622989	0.070027636
3	44381351	266.066257973	0.227634984
3	44419855	266.203554509	0.137296536
3	44429200	266.24564122	0.042086711
3	44443994	266.331109198	0.085467978
3	44463540	266.440291941	0.109182743
3	44470170	266.47615595	0.035864009
3	44487735	266.561342854	0.085186904
3	44491245	266.57632303	0.014980176
3	44537473	266.791545204	0.215222174
3	44538830	266.797361602	0.005816398
3	44551252	266.853865107	0.056503505
3	44559815	266.893702442	0.039837335
3	44586291	267.01764354	0.123941098
3	44616718	267.172183011	0.154539471
3	44637367	267.26805222	0.095869209
3	44649353	267.324927466	0.056875246
3	44676685	267.465190535	0.140263069
3	44686091	267.519133195	0.05394266
3	44731404	267.733595342	0.214462147
3	44747441	267.840399167	0.106803825
3	44752946	267.866567323	0.026168156
3	44770842	267.956311029	0.089743706
3	44772896	267.964108474	0.007797445
3	44776193	267.976208053	0.012099579
3	44781791	267.999678838	0.023470785
3	44805277	268.087006701	0.087327863
3	44880446	268.380527689	0.293520988
3	44900806	268.469794512	0.089266823
3	44908954	268.50221781	0.032423298
3	44919718	268.55087243	0.04865462
3	44943570	268.672197373	0.121324943
3	44980488	268.91212324	0.239925867