version 2
run PastryDHT-6-20211207-13:00:59-4660
attr Lifetime 700s
attr configname PastryDHT
attr datetime 20211207-13:00:59
attr experiment PastryDHT
attr inifile configs.ini
attr iterationvars $Lifetime=700s
attr iterationvars2 "$Lifetime=700s, $repetition=0"
attr measurement $Lifetime=700s
attr network oversim.underlay.simpleunderlay.SimpleUnderlayNetwork
attr processid 4660
attr repetition 0
attr replication #0
attr resultdir results
attr runnumber 6
attr seedset 6

vector 37  SimpleUnderlayNetwork.globalObserver.globalStatistics  "GlobalNodeList: Number of nodes"  ETV
vector 38  SimpleUnderlayNetwork.globalObserver.globalStatistics  "GlobalDhtTestMap: Number of stored DHT entries"  ETV
vector 39  SimpleUnderlayNetwork.globalObserver.globalStatistics  "LifetimeChurn: Session Time"  ETV
vector 40  SimpleUnderlayNetwork.globalObserver.globalStatistics  "LifetimeChurn: Time between creates"  ETV
vector 41  SimpleUnderlayNetwork.globalObserver.globalStatistics  "LifetimeChurn: Time between deletes"  ETV
37	11634069	200	1026
37	13667104	250	1030
37	15663647	300	1027
37	17979457	350	1032
37	20121014	400	1013
37	22292644	450	1018
37	24386137	500	1020
37	26512758	550	1016
37	28787577	600	1003
37	31150576	650	1001
37	33286662	700	1015
37	35660928	750	1012
37	37985135	800	1000
37	40456042	850	996
37	42866653	900	1008
37	45544189	950	1020
37	47894220	1000	1024
37	50165685	1050	1022
37	52713318	1100	1014
37	54932764	1150	1017
38	11634070	200	1508
38	12040861	210	1693
38	12451138	220	1841
38	12876706	230	1997
38	13283844	240	2141
38	13667105	250	2301
38	14083043	260	2480
38	14502774	270	2643
38	14936334	280	2810
38	15245025	290	2969
38	15663648	300	3111
38	16129517	310	3280
38	16592043	320	3450
38	17099746	330	3611
38	17534264	340	3764
38	17979458	350	3923
38	18378908	360	4080
38	18876018	370	4244
38	19289599	380	4416
38	19708000	390	4573
38	20121015	400	4740
38	20555209	410	4803
38	20969138	420	4815
38	21484436	430	4828
38	21835410	440	4818
38	22292645	450	4794
38	22701756	460	4778
38	23098213	470	4807
38	23496736	480	4851
38	23964233	490	4853
38	24386138	500	4843
38	24784925	510	4809
38	25239451	520	4808
38	25667318	530	4805
38	26116967	540	4831
38	26512759	550	4835
38	27100482	560	4811
38	27619239	570	4822
38	27949483	580	4794
38	28381050	590	4797
38	28787578	600	4817
38	29297172	610	4790
38	29813889	620	4796
38	30263796	630	4793
38	30825951	640	4777
38	31150577	650	4784
38	31540736	660	4793
38	31979140	670	4791
38	32396652	680	4782
38	32821258	690	4800
38	33286663	700	4761
38	33924243	710	4770
38	34369175	720	4782
38	34805913	730	4778
38	35292763	740	4773
38	35660929	750	4776
38	36141345	760	4763
38	36634310	770	4769
38	37066021	780	4762
38	37475652	790	4753
38	37985136	800	4736
38	38457504	810	4749
38	38886322	820	4761
38	39462877	830	4742
38	40006558	840	4725
38	40456043	850	4729
38	40980822	860	4733
38	41452012	870	4728
38	41980186	880	4746
38	42357383	890	4738
38	42866654	900	4718
38	43424752	910	4732
38	44037114	920	4714
38	44606864	930	4724
38	45146465	940	4763
38	45544190	950	4737
38	46066330	960	4714
38	46541361	970	4738
38	47059203	980	4735
38	47443516	990	4706
38	47894221	1000	4748
38	48315670	1010	4736
38	48780906	1020	4728
38	49277299	1030	4746
38	49753233	1040	4745
38	50165686	1050	4739
38	50634618	1060	4765
38	51285153	1070	4737
38	51753754	1080	4731
38	52244954	1090	4743
38	52713319	1100	4743
38	53098506	1110	4739
38	53550049	1120	4753
38	54037254	1130	4762
38	54521428	1140	4762
38	54932765	1150	4778
38	55469233	1160	4759
38	55916786	1170	4760
38	56271006	1180	4765
38	56663185	1190	4712
39	11636186	200.069681939	17.011147571
39	11675604	201.293688625	2805.392170487
39	11731315	202.959913406	1116.569618273
39	11777176	204.506439909	575.396362142
39	11822814	205.635538846	1979.778837356
39	11825437	205.720788525	1795.789755003
39	11852035	206.156620302	598.441047557
39	11883659	206.79852947	309.708969307
39	11890651	207.019838936	665.685575583
39	11893565	207.104197936	1274.687584873
39	11918971	207.720283932	833.958496595
39	11999071	209.317154676	655.600221669
39	12010044	209.491178947	1058.010248513
39	12029994	209.764969295	283.136087156
39	12059312	210.505156532	1710.790946038
39	12065871	210.788203437	843.311441408
39	12096001	211.368953514	120.369560059
39	12156347	212.718724577	619.486794155
39	12204817	213.391165231	224.327556824
39	12207467	213.474070774	282.295892816
39	12247359	214.447349258	13.002218837
39	12288615	215.146241638	1112.697359387
39	12311768	215.637219234	386.084873326
39	12377770	217.485216606	1523.358639009
39	12380547	217.59646171	298.648450647
39	12401591	218.402790772	605.350653192
39	12402350	218.43027205	88.336503094
39	12420583	219.257868754	27.082565702
39	12422779	219.381681426	1567.26218055
39	12524992	221.86526382	250.33842587
39	12540097	222.186527459	378.722450424
39	12590259	222.881058437	3148.546469628
39	12617291	223.286986438	521.239900914
39	12672438	224.623279228	973.60818281
39	12721288	225.439328767	131.292596155
39	12752793	226.290509183	681.008287623
39	12756433	226.462537936	145.89432015
39	12766929	226.830326573	51.719313784
39	12781328	227.380302934	717.236526175
39	12795035	227.690736416	2793.347410584
39	12832598	228.794505987	62.154145939
39	12833132	228.812622571	41.325730549
39	12854034	229.385209116	523.792488651
39	12891814	230.471234422	347.698067313
39	12937972	231.453243132	450.606331292
39	12986699	232.40481114	749.020010662
39	13007230	232.902303067	1395.11940935
39	13036219	233.557153735	160.991713951
39	13121714	235.538613542	2890.947656259
39	13149306	236.171319439	44.504416242
39	13181414	236.987316701	159.769462529
39	13182369	237.039082629	972.959801163
39	13211278	237.794958243	805.940468277
39	13239676	238.779600241	535.616010198
39	13282951	239.963913191	1066.864941555
39	13286567	240.076852121	1105.265206734
39	13290924	240.214546233	607.868333016
39	13293429	240.275126973	749.323656974
39	13337313	241.709945389	1355.806683266
39	13344858	241.807790382	626.962430292
39	13369071	241.985046323	300.485876837
39	13377067	242.09063548	411.083450407
39	13397187	242.65816767	50.829686147
39	13418756	243.305773138	920.870582226
39	13521601	246.172569203	1200.056473495
39	13563386	247.109196567	532.390960406
39	13565254	247.195415811	371.300200235
39	13571467	247.469392208	98.769751324
39	13574297	247.642008916	81.941579536
39	13616093	248.548025113	754.640862018
39	13635296	248.981564436	458.046039671
39	13643690	249.268462816	202.5243902
39	13644308	249.296500139	1226.052894123
39	13660339	249.812020834	366.391792225
39	13738228	251.195050357	213.950807414
39	13820433	253.264574364	1581.043650545
39	13843823	253.951949684	330.68470035
39	13843863	253.953387197	356.470592503
39	13844345	253.980653202	3304.769286616
39	13876166	254.772657487	1622.350694755
39	13966471	256.595818138	627.439984467
39	13967337	256.621758188	1654.374745123
39	13968292	256.648835144	690.658841096
39	13992462	257.36271339	272.603897387
39	14014431	257.965303185	921.279020772
39	14026968	258.31865101	892.466759524
39	14038878	258.520241411	137.312034809
39	14051631	258.809201357	19.314945611
39	14118719	260.931883913	1732.986432665
39	14136445	261.621507214	1389.60537208
39	14156837	262.259251112	1935.851105081
39	14172412	262.674719343	1336.947312276
39	14181794	262.992704447	1307.794045175
39	14225680	263.708429715	1556.880175815
39	14285886	264.726599078	319.248623278
39	14295281	265.002441684	311.905925868
39	14393211	266.829476717	114.304904784
39	14440718	268.11858063	2055.5449536
39	14475014	269.136142711	728.085191377
39	14484237	269.440191186	591.733643985
39	14492242	269.659569518	94.175266082
39	14498736	269.858029133	202.694649273
39	14514355	270.316790733	1265.19213736
39	14522339	270.617690693	454.008225486
39	14566657	271.830960549	747.497485996
39	14571328	271.934515085	1133.038847093
39	14574421	272.016875461	609.933401411
39	14669553	274.304071621	552.188327662
39	14701891	275.301113539	677.060727588
39	14723108	275.781104995	379.907657407
39	14731189	275.942718122	147.086818337
39	14763614	276.875992639	2213.20609071
39	14799586	277.428395863	2833.486092063
39	14837507	277.93152899	2615.874894939
39	14861782	278.637316027	677.326791813
39	14929528	279.840573993	427.968367708
39	14993586	281.818715372	219.864322405
39	15135051	286.776888901	2882.414776742
39	15141642	287.059609269	457.214740814
39	15159719	287.672295955	424.047827666
39	15183477	288.200500998	791.075754848
39	15198447	288.791530047	358.138557742
39	15206881	289.260162879	1121.75052373
39	15234069	289.828459089	281.014625943
39	15247571	290.035261162	387.763779841
39	15260912	290.256108334	204.859570478
39	15352718	292.56687745	87.585107353
39	15370942	293.137837479	366.442413835
39	15371777	293.156621567	2313.865237631
39	15377436	293.259909554	931.621458467
39	15381972	293.373527726	1118.308367113
39	15420806	294.362121321	29.782116634
39	15497446	295.888411512	105.497442034
39	15517954	296.347068534	1727.786575282
39	15526250	296.562403939	1381.530673231
39	15533720	296.709614194	203.975493475
39	15576156	297.482164622	867.456856528
39	15662495	299.960904516	474.861872821
39	15666959	300.14320939	587.748508101
39	15681829	300.656276944	928.918290221
39	15691330	300.972763735	333.935017118
39	15710979	301.473466196	383.187873205
39	15720677	301.622891067	1034.872910659
39	15748539	302.125364768	6.082202321
39	15748869	302.130777994	12.846121727
39	15753000	302.223621621	59.625808674
39	15756350	302.307709333	1753.907165409
39	15781173	302.885608688	64.633735661
39	15797237	303.318522644	1141.625601381
39	15870966	304.777522247	1206.627357789
39	15884978	305.023385606	411.971212156
39	15891108	305.126644427	738.551829927
39	16008059	307.166914533	395.528214244
39	16073422	308.794179576	481.088077843
39	16091660	309.043582096	1089.672337023
39	16136495	310.292950205	613.55587676
39	16139711	310.428023976	45.108032165
39	16141761	310.489887492	1364.05615998
39	16145264	310.624270062	84.502094335
39	16177206	311.228053435	742.89741232
39	16194490	311.747568598	1250.949263516
39	16202164	312.045351152	706.417853144
39	16204429	312.151241303	391.967926371
39	16282195	313.012132877	259.546429081
39	16314424	313.777072747	668.067668178
39	16317441	313.846978517	878.141167397
39	16327085	314.107138858	165.588299154
39	16337016	314.265283068	89.200134576
39	16407042	315.808801873	1445.079582359
39	16437334	316.829932458	1346.16177101
39	16455913	317.17649398	753.420357802
39	16464258	317.369026911	269.743203787
39	16579137	319.677818743	82.674100394
39	16603331	320.265152921	75.045414184
39	16624993	320.837980904	91.385676867
39	16635706	321.116483708	734.911344731
39	16671638	321.657495425	80.809109708
39	16683641	321.795652981	1180.303611117
39	16713903	322.53926582	635.323172937
39	16740874	323.020055585	828.623932797
39	16745802	323.111417422	685.55892629
39	16803428	323.853072517	258.67246583
39	16833819	324.671367132	107.684395218
39	16856181	325.071595386	432.691600669
39	16859250	325.146430437	269.018883253
39	16891095	325.747349281	862.449028794
39	16913385	326.413640705	847.444791699
39	16976531	327.653077561	919.113643759
39	16989711	328.138500136	587.79360153
39	17016941	328.821032494	351.851844122
39	17144320	331.09966745	332.302589998
39	17189370	332.210987765	235.814462074
39	17193751	332.411120947	1499.709636069
39	17205393	332.747681444	466.816077224
39	17226233	333.238330517	63.479349499
39	17239368	333.735536789	287.195066111
39	17266688	334.549100081	420.500435069
39	17288299	335.153470192	2547.123723313
39	17310864	335.630353218	1279.176148032
39	17396661	337.279832978	892.592689959
39	17399533	337.40829336	36.119905106
39	17405259	337.499201878	805.871279805
39	17410121	337.550417182	610.527252982
39	17449096	338.15846104	2058.462228634
39	17478707	339.115972912	607.86309438
39	17481241	339.192957726	165.387338951
39	17508157	339.591467865	340.097643514
39	17649524	343.055127988	279.753649072
39	17676775	343.653406784	293.947237972
39	17690915	343.950710428	2082.138140299
39	17807982	346.058881404	343.818327692
39	17809654	346.091219367	824.852573124
39	17811308	346.122301205	115.244303391
39	17818998	346.299421866	854.535413636
39	17856284	347.307636248	353.353070815
39	17911426	348.244901379	22.948084756
39	17948749	349.185886084	1366.463650426
39	18035212	351.296963323	460.401401462
39	18046807	351.714172299	372.27482839
39	18067101	352.319952748	193.835283512
39	18105597	353.126152286	1046.64056386
39	18110333	353.307843881	1048.638645387
39	18114504	353.458349691	616.680314756
39	18119000	353.623814919	1892.45663906
39	18119029	353.625080494	244.418835749
39	18128308	353.855683652	140.869262641
39	18145075	354.220372815	283.892420656
39	18150828	354.320224487	487.275576229
39	18160402	354.544461265	264.2715705
39	18219005	355.891567971	665.427749875
39	18267315	357.081317546	30.129184269
39	18300895	357.912279544	61.119297389
39	18330304	358.56535537	71.591017959
39	18348701	359.229887739	1348.931937785
39	18395657	360.390657955	125.589173422
39	18401779	360.479539704	77.621306052
39	18415581	360.638147527	427.417216055
39	18428879	360.934213894	316.261852226
39	18565580	363.239149213	393.216767215
39	18586593	363.799297138	491.927550355
39	18608058	364.205044243	1227.495173658
39	18618058	364.391496863	465.378719729
39	18624946	364.533364179	2207.875298809
39	18636263	364.725643778	429.929594917
39	18664660	365.306921681	205.250722488
39	18852989	369.273622793	140.350105612
39	18863985	369.554652195	1237.291606764
39	18908277	370.671153992	556.892575843
39	18908660	370.681316108	524.614141016
39	18957712	371.997804699	586.588684716
39	18991641	372.890100113	648.55361069
39	19013658	373.316456817	163.513195216
39	19043199	374.314439194	656.320544253
39	19097657	375.518772824	273.507293345
39	19155136	376.777280017	1564.280134521
39	19172178	377.342504774	1063.740399125
39	19172276	377.347698543	180.940495041
39	19185512	377.713359862	236.572800404
39	19198819	377.927467168	390.601201911
39	19279961	379.815084043	1273.138364267
39	19330983	380.73638729	862.483656654
39	19338070	380.945153368	855.159109834
39	19352226	381.366005276	3213.125811601
39	19406726	382.485255947	831.479219737
39	19468750	383.922656848	557.623159845
39	19520760	385.127391484	45.579841339
39	19531169	385.348472045	18.069082317
39	19590632	386.889658194	475.244896248
39	19675384	388.898414566	150.150212085
39	19751370	391.096115364	249.493597545
39	19766005	391.692670361	85.42404394
39	19779223	392.165167991	148.135778255
39	19779276	392.1668512	320.60630094
39	19832073	393.481024864	613.168555298
39	19841853	393.696689731	758.937609496
39	19854202	394.080196927	311.510798986
39	19871677	394.500263188	52.66803987
39	19898759	394.967012359	508.255472513
39	19934740	395.670031255	718.650470952
39	19988095	396.776259753	9.779472665
39	20050587	398.324485477	333.861524425
39	20106925	399.566153809	1864.715983593
39	20123282	400.113455089	171.967227201
39	20123465	400.122117677	1545.433859808
39	20123706	400.138463922	981.120012543
39	20135675	400.418811655	441.329156998
39	20137984	400.502452716	163.10392062
39	20138734	400.524000521	181.68444106
39	20159139	401.025952524	48.248789724
39	20215130	402.293411138	425.795404869
39	20237604	402.758118436	458.873656574
39	20321800	404.429292238	393.585885576
39	20426510	406.679531296	1073.265531995
39	20471663	407.917026993	354.337422689
39	20474961	407.970436417	667.861697572
39	20488088	408.241969538	848.09450074
39	20499744	408.615444501	357.490663228
39	20568010	410.434324089	1050.623525156
39	20572795	410.574327809	242.387266957
39	20577748	410.818852436	1616.676794189
39	20623870	412.080348319	641.425773242
39	20689012	413.554443329	734.532765936
39	20719841	414.07206368	13.964084003
39	20771983	415.396658483	233.532012441
39	20778265	415.555932804	22.213073632
39	20805437	415.926122419	807.690945664
39	20844971	416.819564927	1126.074446989
39	20878118	417.85492964	329.251652002
39	20878578	417.878225845	1486.508481961
39	20927914	419.065705813	72.067889408
39	20928042	419.068864201	216.419293115
39	20948958	419.606007783	3868.497509277
39	20951096	419.634353258	73.593835518
39	20987471	420.579383287	130.493851442
39	20988230	420.620520174	143.94173536
39	21036092	421.45189033	2141.364548117
39	21083898	422.434809504	435.055217679
39	21092952	422.674212483	86.045812499
39	21096257	422.782374818	412.0137169
39	21133639	423.343956151	99.08800714
39	21139392	423.614070437	100.665780982
39	21148425	423.881960717	412.989156813
39	21172587	424.341599641	229.993041324
39	21179861	424.511943524	1361.046884386
39	21270791	426.0449305	127.634586162
39	21331206	427.112195518	336.832318945
39	21356403	427.669252419	1834.511628351
39	21453529	429.316999703	333.56851166
39	21526904	431.048224875	862.581833368
39	21544801	431.613348644	45.049270959
39	21624509	433.967971963	316.778396958
39	21635891	434.194574317	670.058406201
39	21642347	434.428700161	460.847886953
39	21698181	436.051496279	486.177391252
39	21710967	436.569126924	232.499513823
39	21717512	436.827478947	1131.533289594
39	21719425	436.897921169	68.831792752
39	21725353	437.139280434	1590.517996102
39	21728772	437.34510152	3288.835417731
39	21852420	440.54375351	318.259018608
39	21854065	440.567417483	32.753277551
39	21859001	440.682337553	2102.152468168
39	21863183	440.84237798	110.069560173
39	21866520	440.960220098	56.558127173
39	21889062	441.662688515	547.633105981
39	21896176	441.922364517	1797.297782365
39	21967904	443.263014586	53.521131922
39	22054769	444.618506186	112.934848348
39	22057213	444.669791369	373.000673916
39	22080104	445.116307423	343.844748892
39	22133645	446.571363142	1048.679418086
39	22138187	446.702446181	191.133981438
39	22307977	450.316199483	601.14835221
39	22365176	451.923382821	58.926266993
39	22375418	452.157917878	1672.57292035
39	22423878	453.298247541	269.53544913
39	22434223	453.486567918	679.031690493
39	22439697	453.652862423	1894.219548963
39	22468282	454.319298283	55.720447595
39	22469798	454.369144257	104.744241722
39	22489882	454.902655825	321.417346862
39	22502176	455.208844787	885.809728017
39	22559145	456.656381571	985.688243914
39	22578285	457.004432271	1365.204977908
39	22776456	461.946133286	117.353522809
39	22796104	462.444238734	202.674287285
39	22819858	463.257495421	491.793088864
39	22838062	463.788242787	1046.483104893
39	22851320	463.934742077	353.538911945
39	22907406	465.185075579	492.511049611
39	22943565	465.743741819	1280.076462364
39	22960855	466.165014278	249.24211091
39	22968716	466.346843513	1555.141078926
39	22990564	466.909523163	633.036968521
39	23020433	467.509257903	680.445076037
39	23034740	467.940412692	256.603986923
39	23045739	468.356113274	878.64848379
39	23126475	471.332116646	92.369789215
39	23164242	472.549466676	644.765569527
39	23186662	473.150978132	448.423042989
39	23188100	473.1841259	596.565058918
39	23233251	474.361593363	146.541993008
39	23237781	474.506626615	45.343876656
39	23286717	475.480412281	118.337240503
39	23301731	475.910287038	18.17698879
39	23310519	476.063488471	783.581405877
39	23415567	477.848213034	287.771335089
39	23424588	478.190524124	218.994039125
39	23460173	478.917918055	165.830046883
39	23490255	479.735276147	105.099343228
39	23574558	481.766015539	84.842176934
39	23607729	482.591900824	71.390498491
39	23621465	482.968571359	497.743440164
39	23655827	483.562845715	42.371824703
39	23660025	483.640661177	295.714148307
39	23671174	483.775258202	128.286060847
39	23695001	484.243611069	87.708544337
39	23706802	484.361631082	1492.159831795
39	23750367	485.357781493	556.513012644
39	23780887	486.013517591	10.815054988
39	23926970	489.092555638	784.056168275
39	23969444	490.19533274	96.145205379
39	24029937	491.305916848	95.258038388
39	24030366	491.319427253	1115.699485535
39	24033283	491.425641254	692.323795861
39	24044818	491.903044964	1104.880309397
39	24068624	492.375296196	540.457842964
39	24100233	493.088479071	154.205699193
39	24101240	493.144968879	348.55209655
39	24137898	494.036697609	100.781664693
39	24144576	494.138698384	79.377991251
39	24152454	494.359933545	603.107501955
39	24216292	495.751295764	1568.258962845
39	24362557	499.299589724	1242.910687076
39	24373841	499.542481622	72.212164719
39	24447458	501.465532398	29.872753683
39	24457554	501.871999565	9.788608101
39	24458378	501.903642088	286.421517347
39	24509978	503.553570198	1220.91615691
39	24513874	503.766525021	486.346985722
39	24522546	504.082207398	642.197932525
39	24534675	504.523561391	329.095051466
39	24558647	505.15199922	203.684658721
39	24577180	505.653148245	339.477478097
39	24649572	507.327617403	432.268407553
39	24655740	507.460209976	267.014951621
39	24670234	507.763913767	1789.03922646
39	24728388	508.901597135	38.888104321
39	24764739	509.636373841	425.606340351
39	24820936	510.834208308	366.16949963
39	24921662	513.076543838	130.967001408
39	24928770	513.230345962	130.034995075
39	24985693	514.660922933	66.899965918
39	25039841	515.623570902	2518.287780701
39	25094314	516.795591258	487.71537168
39	25107609	517.046488786	453.810992097
39	25134586	517.784326898	130.016244801
39	25197418	518.91792186	274.022854133
39	25200007	518.987963479	1215.263641977
39	25200944	519.004473085	293.684220325
39	25201105	519.007991839	342.329973022
39	25220006	519.453925154	1182.07245991
39	25230776	519.812652236	57.51434154
39	25254966	520.545028802	143.361294647
39	25328303	522.402915911	85.645536647
39	25349534	522.916933772	510.531391913
39	25374101	523.729035067	4091.30361283
39	25482352	525.728590019	368.474399027
39	25483641	525.762860043	1336.887488085
39	25491535	525.950599595	91.079259909
39	25494573	526.053847759	696.478010874
39	25503042	526.317221873	80.083496668
39	25510093	526.47543374	621.662123969
39	25684082	530.31523526	376.243106602
39	25684184	530.318540924	1238.522474259
39	25690828	530.536467094	363.636274736
39	25747961	531.93623703	456.428712851
39	25758012	532.269928205	201.246745711
39	25826522	533.507175968	180.699844094
39	25838240	533.783027558	500.170159109
39	25848753	534.006143499	2535.298941638
39	25969385	536.734543485	345.21017517
39	25974851	536.868040533	51.898893561
39	25976997	536.930889845	1764.074380327
39	25979471	537.008152601	898.701580696
39	26017136	537.455263192	471.967589783
39	26040839	538.00268714	1835.490342019
39	26095356	539.279363929	635.091649625
39	26168700	541.393739758	219.760259019
39	26248756	543.368656765	127.375488337
39	26275586	543.975983823	901.327085109
39	26298799	544.847339566	972.1119038
39	26302070	544.959912877	214.632693043
39	26331098	545.625020538	486.253055524
39	26336535	545.845856324	165.924993662
39	26382230	546.846256962	560.368361557
39	26385171	546.92167624	402.64694476
39	26408186	547.688724437	443.315511646
39	26410646	547.778222533	200.354657621
39	26489541	549.378999519	680.602616552
39	26500942	549.617685849	353.105251674
39	26504987	549.748907179	707.980831736
39	26513460	550.023859173	1047.73524733
39	26547068	550.820620829	352.393750455
39	26557187	550.981880069	801.923769661
39	26560340	551.03196165	1094.882160799
39	26566780	551.148351164	2751.111412815
39	26580398	551.527339629	648.413410103
39	26593131	551.84255871	1155.807416876
39	26634665	552.628124815	889.945651042
39	26635469	552.652874697	18.058168776
39	26659987	552.871417876	157.118893076
39	26678718	553.211599984	2908.901255781
39	26713576	553.777013918	542.438139817
39	26730576	554.120724678	430.973430783
39	26784449	555.37467878	316.29024346
39	26807415	555.684377078	16.758628229
39	26847915	556.228985136	250.554589811
39	26853080	556.348323756	62.386615029
39	26872733	556.962468773	138.741601583
39	26908211	557.588493068	67.787891596
39	26923294	557.82805346	1358.966129286
39	26950168	558.11347694	458.165916369
39	26993274	558.924770019	621.816974543
39	27004070	558.995822312	253.268800985
39	27005065	559.004938818	892.065862304
39	27098475	559.976246291	929.006843982
39	27113151	560.238471388	47.960450715
39	27241869	562.113696908	17.432732436
39	27280905	562.685251162	314.277844634
39	27300045	563.141739605	298.581468451
39	27304348	563.275124451	1073.570714912
39	27308499	563.413001878	98.635376273
39	27519007	567.722585541	76.94452289
39	27532103	567.922539705	1252.052935877
39	27744340	573.059509003	209.090618045
39	27780291	574.552125843	235.514829985
39	27787300	574.79036464	722.855865216
39	27798322	575.134197924	45.428456185
39	27921443	579.093670761	1031.308510414
39	27926312	579.275836229	2263.512883079
39	27957720	580.329688211	371.131154491
39	27964159	580.641562243	785.209157854
39	27978094	581.08651332	1681.649117638
39	27993778	581.614393342	735.201702815
39	28007032	582.16222873	815.368627844
39	28039404	582.979891916	1777.874542354
39	28058942	583.759059464	846.474412281
39	28074530	583.948271672	250.954707802
39	28078291	584.046910676	2382.147510394
39	28085864	584.18300635	154.2336985
39	28112024	584.548115474	293.859063895
39	28132453	585.174007494	840.091867162
39	28150265	585.608764694	145.743045001
39	28222673	587.331933715	1580.03866247
39	28290387	588.310754516	551.633839206
39	28310397	588.756205438	401.283617362
39	28446010	591.244699619	858.661525339
39	28447394	591.308998446	979.356713539
39	28486644	592.471411816	3183.620436403
39	28494373	592.605414875	806.178944243
39	28499330	592.721303312	222.719789893
39	28521354	593.13928385	69.47457924
39	28552460	594.116429519	793.298863658
39	28555900	594.223273309	748.458690349
39	28570294	594.353398275	182.54429233
39	28595467	594.820059076	270.270552931
39	28719558	597.837439789	1493.937474798
39	28722961	597.999366479	1669.657032335
39	28766366	599.348259661	565.161004688
39	28786201	599.936648926	85.253314638
39	28810083	600.536855503	1153.585698349
39	28830993	601.13382008	885.681235429
39	28839969	601.320477353	1060.005214901
39	28902212	602.773391027	14.801096858
39	28930567	603.269220758	682.960049378
39	28949399	603.601997544	232.147975956
39	28951073	603.641657293	783.639756149
39	28952099	603.662250088	118.780243401
39	28954302	603.718200981	1554.4625633
39	28991700	604.557729816	221.09053404
39	29142986	606.720883955	473.007372912
39	29201287	607.681964319	102.478708322
39	29213317	607.961591159	209.491542432
39	29235783	608.408800674	45.005767069
39	29236782	608.436460503	1859.004479751
39	29275308	609.348364393	1375.06406196
39	29294021	609.92273137	697.1282681
39	29296092	609.967567339	1362.80288308
39	29305796	610.346780464	170.172375876
39	29325752	610.920814722	1485.852230761
39	29372015	611.701656563	916.076863363
39	29404851	612.560009507	96.303200058
39	29470009	613.492479446	2195.76854118
39	29493589	613.958293547	948.149101888
39	29542953	614.663926548	2009.872468728
39	29549519	614.747634514	2242.204513941
39	29614429	616.030001234	56.243109288
39	29629247	616.254576005	367.043143886
39	29654579	616.676806496	1143.808143684
39	29655938	616.698740576	523.411484461
39	29673932	617.109050731	125.325860155
39	29682979	617.409478824	1235.990387189
39	29684749	617.538142202	1686.34959778
39	29765962	619.009023376	330.055600132
39	29781530	619.438509533	260.761584406
39	29793818	619.623845048	97.130009661
39	29802087	619.763254915	1004.70149565
39	29816148	620.077927686	2687.724964474
39	29843166	620.559418651	1646.021784799
39	29865763	621.114703777	106.722608666
39	29932243	622.369069283	183.290013884
39	30011476	623.986275785	296.521487971
39	30027850	624.367617174	512.924679543
39	30043405	624.622118282	151.489392062
39	30069476	625.560643277	1447.506422097
39	30081584	625.922943004	2032.136383952
39	30112555	626.298761829	1915.066837472
39	30121279	626.480999848	175.537272456
39	30205518	628.525812354	1162.424965819
39	30212464	628.755503889	633.666311862
39	30221664	629.031827512	16.843909179
39	30239202	629.401648483	1484.328921035
39	30240237	629.43378447	6.372275551
39	30312907	630.783647837	130.371136503
39	30331389	631.097270953	348.447945902
39	30464869	632.985477784	378.64176437
39	30486163	633.434979846	517.660782768
39	30497186	633.655733654	192.767089034
39	30512977	633.935477743	183.184257316
39	30626666	635.934545813	261.510715763
39	30703168	637.532770566	706.819291079
39	30761974	638.759581802	802.599260086
39	30840752	640.430162578	388.284770604
39	30893343	641.431504172	35.717613525
39	30908031	641.906802921	1104.054225502
39	31001405	645.068758411	1278.061250508
39	31034497	646.315513875	2811.96031704
39	31159461	650.308432512	1858.66866141
39	31220912	652.109977648	142.141316183
39	31266370	653.356267411	411.801418869
39	31292154	653.858061502	740.022821511
39	31295945	653.911756362	1608.729744956
39	31303219	654.056384563	20.091273891
39	31347440	655.229548157	796.994478113
39	31449552	657.237931726	457.23030951
39	31463729	657.578772811	354.105065126
39	31493008	658.392374789	801.28520847
39	31496599	658.502167227	97.029567429
39	31505122	658.76314678	804.705148422
39	31505186	658.766069871	292.629974215
39	31539680	659.968961558	781.481136666
39	31569945	660.766136435	1746.279517786
39	31587444	661.178096236	897.285901883
39	31658159	663.238607258	225.353391694
39	31666413	663.504796164	1203.408926598
39	31684214	663.833559892	73.924754338
39	31710388	664.362632414	1061.052362091
39	31716628	664.542181755	1528.367227768
39	31768582	665.570271041	124.725616788
39	31853485	667.346790915	122.674246146
39	31862460	667.592984955	1284.743055053
39	31868488	667.664175988	185.32904133
39	31928020	669.194271674	542.356904692
39	31940330	669.403219078	227.812160004
39	31945391	669.480431826	135.912953476
39	32005577	670.872284942	1230.911320273
39	32067986	672.288744624	302.4265243
39	32080760	672.637598294	1269.825140846
39	32128963	673.830759245	269.777851493
39	32164191	674.861910255	818.976185719
39	32263369	676.761674488	1244.915632669
39	32285462	677.105994911	237.792433836
39	32359308	678.998106512	1416.367707425
39	32396462	679.986912495	181.291253899
39	32419417	680.900551382	941.523081772
39	32431585	681.255857916	1138.298999542
39	32477536	682.293101429	1207.579486354
39	32501592	682.858516438	309.676362918
39	32540917	683.641152742	168.435836065
39	32571375	684.309465852	191.352766726
39	32644780	686.034160562	2659.608439414