version 2
run PastryDHT-5-20211207-12:53:41-4660
attr Lifetime 600s
attr configname PastryDHT
attr datetime 20211207-12:53:41
attr experiment PastryDHT
attr inifile configs.ini
attr iterationvars $Lifetime=600s
attr iterationvars2 "$Lifetime=600s, $repetition=0"
attr measurement $Lifetime=600s
attr network oversim.underlay.simpleunderlay.SimpleUnderlayNetwork
attr processid 4660
attr repetition 0
attr replication #0
attr resultdir results
attr runnumber 5
attr seedset 5

vector 31  SimpleUnderlayNetwork.globalObserver.globalStatistics  "GlobalNodeList: Number of nodes"  ETV
vector 32  SimpleUnderlayNetwork.globalObserver.globalStatistics  "GlobalDhtTestMap: Number of stored DHT entries"  ETV
vector 33  SimpleUnderlayNetwork.globalObserver.globalStatistics  "LifetimeChurn: Session Time"  ETV
vector 34  SimpleUnderlayNetwork.globalObserver.globalStatistics  "LifetimeChurn: Time between creates"  ETV
vector 35  SimpleUnderlayNetwork.globalObserver.globalStatistics  "LifetimeChurn: Time between deletes"  ETV
31	11829074	200	999
31	13940556	250	1000
31	16453066	300	1007
31	18880570	350	1016
31	21748759	400	1038
31	24273734	450	1008
31	26780515	500	996
31	29325664	550	993
31	31596006	600	985
31	33953218	650	974
31	36532851	700	966
31	39115701	750	980
31	41804912	800	990
31	44130499	850	964
31	46744607	900	962
31	49371032	950	975
31	51974212	1000	967
31	54597880	1050	970
31	57082630	1100	970
31	59372875	1150	979
32	11829075	200	1461
32	12217998	210	1652
32	12683521	220	1821
32	13111725	230	1977
32	13513694	240	2108
32	13940557	250	2244
32	14333283	260	2398
32	14864946	270	2564
32	15409164	280	2753
32	15964467	290	2897
32	16453067	300	3016
32	16919157	310	3169
32	17415636	320	3319
32	17915038	330	3488
32	18468506	340	3670
32	18880571	350	3827
32	19326644	360	3955
32	19950402	370	4122
32	20589341	380	4259
32	21091671	390	4435
32	21748760	400	4620
32	22331016	410	4661
32	22845165	420	4660
32	23331471	430	4681
32	23836259	440	4650
32	24273735	450	4651
32	24772096	460	4639
32	25375425	470	4657
32	25890147	480	4698
32	26337418	490	4693
32	26780516	500	4683
32	27282784	510	4667
32	27765341	520	4645
32	28286162	530	4645
32	28789808	540	4663
32	29325665	550	4687
32	29830624	560	4685
32	30245022	570	4691
32	30712627	580	4634
32	31261782	590	4650
32	31596007	600	4686
32	32073994	610	4693
32	32465192	620	4706
32	32849405	630	4661
32	33378326	640	4642
32	33953219	650	4630
32	34407276	660	4640
32	34962559	670	4645
32	35552423	680	4659
32	36039601	690	4626
32	36532852	700	4582
32	36974286	710	4593
32	37468886	720	4617
32	38086941	730	4619
32	38540793	740	4605
32	39115702	750	4576
32	39636310	760	4580
32	40194065	770	4579
32	40648974	780	4589
32	41341508	790	4590
32	41804913	800	4579
32	42300621	810	4557
32	42715120	820	4559
32	43155666	830	4559
32	43630220	840	4561
32	44130500	850	4558
32	44722245	860	4560
32	45261208	870	4516
32	45712561	880	4538
32	46280849	890	4532
32	46744608	900	4526
32	47315112	910	4534
32	47868251	920	4511
32	48428203	930	4525
32	48958573	940	4509
32	49371033	950	4509
32	49921744	960	4543
32	50430272	970	4542
32	50920976	980	4534
32	51488721	990	4527
32	51974213	1000	4539
32	52590566	1010	4512
32	53172656	1020	4538
32	53647603	1030	4524
32	54087770	1040	4531
32	54597881	1050	4537
32	55011177	1060	4526
32	55479591	1070	4511
32	55977573	1080	4502
32	56537605	1090	4508
32	57082631	1100	4510
32	57606811	1110	4524
32	58014865	1120	4519
32	58437081	1130	4515
32	58968244	1140	4518
32	59372876	1150	4513
32	59832994	1160	4512
32	60294513	1170	4553
32	60790573	1180	4526
32	61298388	1190	4475
33	11851063	200.572268301	1564.325718401
33	11857228	200.708001457	398.75946932
33	11862795	200.870854586	3.333427785
33	11899832	201.761055863	1329.637457747
33	11936778	202.495136521	954.201098215
33	11953026	202.998871303	639.073234729
33	12003877	204.458520346	258.175344231
33	12018904	204.68215362	803.724053168
33	12055605	205.534909288	146.730648182
33	12126888	207.43718711	71.598981603
33	12140814	207.712357434	127.479681307
33	12149572	207.917259153	1844.459580982
33	12157079	208.149212499	68.83630146
33	12162665	208.339812944	1646.54907284
33	12169776	208.686564381	910.874974314
33	12178926	209.069787823	12.564818241
33	12247947	210.772207415	180.157444137
33	12262243	211.199299809	284.072572225
33	12263109	211.240269039	310.345252645
33	12281703	211.499900863	92.060194724
33	12304595	212.059788031	235.741353926
33	12320450	212.604748249	596.276366395
33	12320653	212.618266485	12.040903409
33	12323569	212.744617712	1.468092766
33	12381313	213.730468432	1208.635264006
33	12419234	214.58727411	987.905114009
33	12426924	214.733534135	471.558848342
33	12447632	215.083276971	662.698237043
33	12464484	215.30442592	230.106582909
33	12525539	216.500740928	282.43022233
33	12527620	216.55813824	805.116173045
33	12535620	216.705054838	1666.305115091
33	12543076	216.81682983	386.032218244
33	12584723	217.727944842	78.631802201
33	12622518	218.509133991	422.4745665
33	12660870	219.535653152	191.797918155
33	12711257	221.123192665	1058.518011326
33	12779031	223.155847903	150.633492103
33	12783985	223.315439568	26.84876382
33	12822276	224.428935869	1386.607292598
33	12847837	224.893895465	88.992249542
33	12885759	225.751625096	71.971763127
33	12886098	225.768167695	481.563554467
33	12890469	225.92339214	42.849645665
33	12915659	226.458235494	307.569821095
33	12927101	226.731476969	247.857922287
33	12949629	226.918989319	2060.185262969
33	12988631	227.755667275	1039.761400719
33	13001224	227.980251818	53.692511871
33	13007211	228.123365454	636.156058445
33	13008454	228.158841235	319.259987004
33	13100271	229.813538521	334.248030826
33	13128358	230.245435715	1567.774560593
33	13258093	232.743792838	706.696400319
33	13292467	233.938064828	50.313990628
33	13313118	234.677047648	279.514154406
33	13324406	235.217359889	1000.395775927
33	13325148	235.270937724	331.547466971
33	13352509	236.164440588	18.746085691
33	13362171	236.390404296	13.439319733
33	13378049	236.8277769	1622.006802347
33	13394959	237.312555119	389.365333635
33	13403072	237.654575745	1015.629514175
33	13462549	238.607258149	371.109509058
33	13490266	239.459633772	431.390359676
33	13534783	240.284682165	2835.539402247
33	13542043	240.397539114	921.165505966
33	13569295	241.112908844	790.717353426
33	13588660	241.647065957	651.9475165
33	13605613	242.267014123	292.486337137
33	13617555	242.59418947	788.306462949
33	13643435	243.004537013	0.229783718
33	13656047	243.364504274	392.807875239
33	13678724	244.067565525	175.222194025
33	13688285	244.359392989	124.621533261
33	13696698	244.682413983	603.074643853
33	13735612	245.47991186	130.433270433
33	13782578	246.644419539	2530.94061702
33	13865922	248.087777338	527.521474024
33	13880373	248.429081005	1766.742796059
33	13908946	249.253078302	607.017015228
33	13915152	249.399437017	587.418316975
33	13963438	250.383413242	1163.161371707
33	13993872	251.325165861	36.46016295
33	13997451	251.504236474	164.591991376
33	14025473	252.436802247	1294.479561
33	14048964	253.178415043	1608.107911968
33	14105875	254.300933027	545.312342134
33	14181329	256.173383959	1170.328732238
33	14185676	256.25943735	617.653883163
33	14194194	256.500357218	698.590900579
33	14194699	256.521122786	451.83138948
33	14218487	257.351023759	38.720109062
33	14231774	257.626212381	1013.218520219
33	14241117	257.916524542	139.901627361
33	14245496	258.066314943	207.125562813
33	14247235	258.115686415	345.360976842
33	14249581	258.190196839	798.151898857
33	14252451	258.284125372	242.047738208
33	14268935	258.903978068	50.088790887
33	14284946	259.26463363	361.753542977
33	14303713	259.488349065	547.587680342
33	14329455	259.940644235	432.187778722
33	14338437	260.075035462	222.603880707
33	14338459	260.075153302	643.302545775
33	14372767	261.070151584	489.451084412
33	14405738	261.58188025	270.765089583
33	14439727	262.427350939	568.905726415
33	14441829	262.525170458	584.792121142
33	14486343	263.5295983	1140.186777627
33	14526495	264.1120298	419.966337435
33	14551328	264.522347875	30.865327638
33	14552828	264.583701303	14.31825484
33	14565716	264.854764953	635.280505165
33	14590060	265.358451934	729.822426788
33	14622539	265.683966046	659.668756038
33	14684554	266.902235184	162.736952522
33	14697618	267.171194554	530.514918426
33	14756900	268.059235241	619.159126348
33	14767292	268.365264016	87.572276826
33	14812297	269.057169436	589.96230522
33	14886354	270.415810789	1068.361373078
33	14913033	270.733637333	119.237733377
33	14957644	271.427225608	461.698989646
33	14966189	271.611755632	6.812312367
33	14992876	272.110032082	279.843513372
33	15040318	272.908102562	268.961249165
33	15045587	273.07404278	572.868510012
33	15051675	273.227794986	153.527427319
33	15054853	273.305389831	3.809244561
33	15098432	274.150513184	139.389641233
33	15111751	274.506772222	2201.633979008
33	15134811	275.017840167	70.289612958
33	15154151	275.41441046	144.661597709
33	15169668	275.831820679	146.374017853
33	15182543	276.100201681	159.093801988
33	15309402	278.121897927	417.562745123
33	15324017	278.363582433	729.684987207
33	15362535	278.974531029	617.41561376
33	15415975	280.113287328	1339.291852215
33	15424185	280.29917359	347.069871626
33	15431134	280.445470535	88.632101648
33	15447038	280.698471217	1793.066608335
33	15448343	280.725764085	2613.424474221
33	15449229	280.744070143	187.931951637
33	15502019	282.13616598	316.941235511
33	15588884	283.180871012	544.155666825
33	15603729	283.480455687	318.732423438
33	15604992	283.499696476	92.468381427
33	15641430	284.257623092	1605.151203596
33	15641662	284.262656646	551.508032721
33	15735406	285.518468947	218.034766367
33	15754521	285.812290932	26.680336279
33	15762509	285.910459222	149.857145844
33	15784342	286.284039312	28.532819436
33	15790167	286.497254769	283.800825654
33	15897348	288.541642532	753.777306331
33	15911844	289.019936075	381.899820792
33	15927867	289.390341796	233.962721844
33	15937022	289.597225678	275.607165663
33	15937551	289.603597824	35.338501367
33	15952823	289.79055437	1559.397609058
33	15959787	289.89865849	416.890859164
33	15984083	290.453064004	273.959066265
33	16008101	291.379156856	922.385609268
33	16048265	292.07828522	499.88566136
33	16141367	293.339860441	366.445137456
33	16211832	294.340888354	401.975236247
33	16217969	294.443399676	73.432301369
33	16236524	294.762025973	179.96681245
33	16275210	295.350850051	66.686592016
33	16306521	296.186084055	307.687581818
33	16311881	296.251107438	1040.006094858
33	16357465	297.544386076	152.578426072
33	16360551	297.615529168	389.318137277
33	16367377	297.834310466	1775.239265559
33	16402039	298.632762469	393.945863751
33	16450680	299.933571576	645.348919185
33	16458332	300.195567621	33.190882103
33	16573549	301.980791461	384.306478524
33	16634262	303.312424387	1118.784911964
33	16661304	303.738885226	1641.934384387
33	16667979	303.84535991	252.000795192
33	16685573	304.400553954	1539.461297156
33	16692161	304.625484303	126.001020631
33	16694646	304.71023348	1420.685721713
33	16714615	305.165523022	349.059959726
33	16717725	305.285118806	126.229563047
33	16756326	306.402201146	1011.484582389
33	16778090	306.9218235	49.660512162
33	16812790	307.641903781	1426.649270171
33	16815452	307.716896816	204.491406823
33	16834825	308.317625981	1521.801734042
33	16837408	308.358519041	1203.006812816
33	16839481	308.392921742	10.324553495
33	16872045	309.114258555	273.200654538
33	16938932	310.447631031	334.86095042
33	16947356	310.654282429	76.083539358
33	16968540	311.215345367	322.105542517
33	16979762	311.519002581	749.276648147
33	17123930	314.12500926	684.511084203
33	17125731	314.175954248	453.067287249
33	17209790	315.360325317	976.608147536
33	17223950	315.76719061	16.699359523
33	17237414	316.108281328	96.109725926
33	17276516	316.991262681	1436.173901597
33	17281875	317.203605749	1024.712209819
33	17286908	317.264797195	277.866985164
33	17318153	317.865286413	389.912105913
33	17330167	318.102590847	53.998276192
33	17394216	319.662072127	16.520324794
33	17482307	321.475435004	1084.687826576
33	17503025	321.90291899	311.02729546
33	17521052	322.545298023	53.738239491
33	17575707	323.635062733	842.531933757
33	17587195	323.766892115	22.571297353
33	17605405	324.143857667	118.818569727
33	17607977	324.220631356	557.372678215
33	17722182	326.054146252	373.398739498
33	17725801	326.136463408	359.305517298
33	17737744	326.402379123	383.809805183
33	17739153	326.438511414	721.234737258
33	17750449	326.684224385	89.96152491
33	17764160	327.190410144	73.467545862
33	17790691	327.640342531	71.051545998
33	17811235	327.924263832	973.475321967
33	17867575	329.061554158	560.030675325
33	17876404	329.305874506	260.463923206
33	17899708	329.779852755	463.888005084
33	17899927	329.783994299	540.643958832
33	17918930	330.093856704	235.610342496
33	17933633	330.450451608	211.203070522
33	17934901	330.47969671	140.533958271
33	17941424	330.64330589	376.96177163
33	18061550	332.438606638	1888.646102543
33	18158752	334.005141502	206.54766799
33	18165056	334.066066552	138.1771874
33	18172199	334.192087207	645.769908743
33	18248109	335.830351431	1647.422819775
33	18251592	335.911868834	77.331937747
33	18297787	336.931946594	847.192205225
33	18304817	337.106372993	554.332264262
33	18358706	337.902935199	0.279448287
33	18365628	338.058706384	12.063795763
33	18367251	338.108951375	1051.13425312
33	18396999	338.797427153	66.849218701
33	18511626	340.917679502	254.148552588
33	18516423	341.063682307	709.27587539
33	18520236	341.181281086	177.84770639
33	18599737	343.241662137	30.745808892
33	18600455	343.256855048	754.634562245
33	18617421	343.577013107	6.815080314
33	18626726	343.934248722	819.526482612
33	18637653	344.197807312	523.981073548
33	18702781	345.759739889	68.344026543
33	18725047	346.244792535	412.561640452
33	18764190	347.159626986	733.777638062
33	18777306	347.591215714	181.691492586
33	18784192	347.804020765	722.384496013
33	18790438	347.910583161	823.298450619
33	18802448	348.088365033	22.714177393
33	18822684	348.739606156	1389.076745439
33	18841358	349.115931689	572.076544211
33	18894027	350.521910502	255.835595852
33	18898790	350.699131716	1008.342803199
33	18915480	350.955413791	149.311860782
33	18927141	351.074192319	114.952846464
33	19000190	352.916479522	56.195942121
33	19034401	353.773685525	961.268625697
33	19054645	354.02848416	8.078215557
33	19121506	355.273214099	1124.329142557
33	19124260	355.401874708	1479.164556763
33	19124890	355.437044419	429.62593898
33	19167408	356.426208791	375.035718796
33	19205720	357.141765064	440.746994586
33	19269626	358.857939999	975.252150834
33	19276204	358.950453353	1772.268400313
33	19291106	359.110300445	507.744353267
33	19308670	359.566367322	200.78104729
33	19312201	359.680750234	1606.557441302
33	19322919	359.894975609	571.012849304
33	19383268	360.988698219	254.814582813
33	19408822	361.569334105	346.099171951
33	19416243	361.639436794	583.268760854
33	19445050	362.028758279	104.637419286
33	19457932	362.301691926	871.224288595
33	19474336	362.693027889	36.095756301
33	19505272	363.229344433	313.484975029
33	19509355	363.290436735	95.568971019
33	19542000	363.824552762	75.926141575
33	19580147	364.71019097	595.644472551
33	19628981	365.359097502	78.721686893
33	19633574	365.429251165	84.298613281
33	19688107	366.197897757	251.066758897
33	19740965	366.949399583	284.492143494
33	19752696	367.109625087	371.257390267
33	19775957	367.370467412	152.75554243
33	19790817	367.587949726	62.501750708
33	19811145	367.978259713	279.305146874
33	19823600	368.156799032	140.379052288
33	19829451	368.284744942	56.352830378
33	19835751	368.379518194	21.963729084
33	19840096	368.422968877	545.260255863
33	19856580	368.600098845	412.218303959
33	19862722	368.669458831	947.625642963
33	19869003	368.755957956	691.649939482
33	19936376	369.710924989	615.437016327
33	19961061	370.132126715	1468.330084679
33	19961898	370.139273535	912.093938525
33	19969288	370.205835116	503.560074387
33	20031453	370.68957368	34.082966906
33	20058980	371.176479135	110.052648033
33	20066002	371.325245019	311.408923487
33	20117575	371.948214001	189.435266176
33	20157297	372.322226189	4.680245254
33	20185777	372.748895946	18.312346964
33	20213698	373.397939309	943.395477974
33	20225611	373.659611906	461.014925363
33	20320698	375.380278475	1141.353271879
33	20335124	375.710289082	1872.461003272
33	20339440	375.82614886	711.790320546
33	20397927	376.65388737	535.084571837
33	20406251	376.84715031	292.672544
33	20407685	376.87441458	178.922778858
33	20542286	379.174357718	1151.894131107
33	20545886	379.254051384	1400.720130738
33	20546000	379.256880872	227.718115433
33	20556124	379.449824035	261.101384659
33	20569391	379.650721631	215.94358651
33	20576900	379.768059036	977.807768947
33	20580640	379.838617009	608.708133444
33	20606585	380.338939352	1554.743065227
33	20618208	380.686347245	244.089037402
33	20652143	381.403931563	828.339863106
33	20711208	382.612862658	583.875049678
33	20718642	382.760719061	135.653373245
33	20752321	383.386423461	2792.394420195
33	20757341	383.445696418	150.107337493
33	20778733	383.712329316	233.124431532
33	20798865	384.084032882	1.989561005
33	20830840	384.518315475	98.72883673
33	20858992	385.000685005	448.581747454
33	20862516	385.096402708	214.85211344
33	20871729	385.382207524	1535.999313351
33	20912936	386.228020533	224.269383865
33	20963535	387.477053647	127.884397779
33	20980196	388.029335482	146.762273005
33	20996157	388.429288588	1044.927682898
33	21086966	389.937325256	654.416841385
33	21091359	389.995887684	99.758528071
33	21104395	390.173264076	41.206891707
33	21115639	390.338321456	1156.290220791
33	21129112	390.588398331	137.36869829
33	21132692	390.724425545	1217.645104464
33	21138763	390.920691125	1366.45103142
33	21139368	390.939457208	918.510426707
33	21155823	391.238143369	782.44259507
33	21198345	391.766065046	612.555316729
33	21209604	391.861232609	186.793924368
33	21337296	393.794481747	122.849685579
33	21384788	394.43852871	3376.536537991
33	21391585	394.552673855	104.486604336
33	21398203	394.675901094	599.050275901
33	21414901	394.989080065	1064.850238177
33	21448589	395.581529972	387.00285083
33	21464931	395.820764542	61.282259729
33	21500528	396.210366387	1134.196990459
33	21549843	397.026721881	1253.67769115
33	21567472	397.279406297	1179.939645898
33	21593818	397.764583133	100.722576153
33	21639541	398.301374394	37.179979928
33	21641013	398.324761488	244.961068316
33	21648997	398.528101167	560.031655153
33	21692271	399.200520197	1072.191516963
33	21739705	399.836367073	206.001476601
33	21749724	400.023345255	1408.870807026
33	21821196	401.180135195	207.318840845
33	21832422	401.291323762	86.408072783
33	21867187	401.886069542	97.065235996
33	21973259	403.450413431	404.904199074
33	21976420	403.516285531	1565.526893424
33	22094346	405.71370717	764.230848404
33	22164540	406.805318558	7.428951548
33	22164983	406.82072351	450.865496769
33	22190947	407.381660552	35.891290547
33	22197300	407.519871492	299.118571654
33	22211663	407.738891837	1008.507013766
33	22250167	408.351861727	171.37127703
33	22270748	408.802978615	960.950828398
33	22363245	410.509312248	420.685935912
33	22365784	410.586819656	48.109927966
33	22395470	411.340755846	378.637684135
33	22395843	411.349098879	403.331140713
33	22411478	411.691918487	164.83964952
33	22429267	412.036715874	84.356364018
33	22485702	413.511375629	2.094243826
33	22509434	413.932460529	33.648126178
33	22515656	414.063121448	636.861127086
33	22521833	414.210408336	557.597385694
33	22551205	414.817277574	229.221285489
33	22583657	415.418922376	1646.88228429
33	22664734	417.004766276	404.520079275
33	22675971	417.230810703	387.580890298
33	22694292	417.4405575	1435.21380274
33	22699480	417.564054404	423.691480559
33	22802011	419.147471165	553.292082858
33	22886116	420.613332158	950.567839774
33	22928381	421.228875117	260.692073558
33	22996333	422.669824139	81.46467163
33	23041961	423.939673944	241.143083134
33	23081754	424.797021542	62.514302218
33	23124380	425.671085273	211.399461623
33	23212220	427.228861035	345.079259941
33	23242126	427.844084023	1466.647665623
33	23245548	427.918236245	247.594315335
33	23262914	428.267014306	175.233083154
33	23270178	428.445439497	645.334612427
33	23286748	428.773371228	469.729283439
33	23299208	429.062346588	136.812958221
33	23304326	429.214114069	485.743388455
33	23314136	429.416777766	2144.332026363
33	23319788	429.565052826	694.032720657
33	23385570	431.043222927	585.918541541
33	23407173	431.422175688	709.153782375
33	23531460	433.878810293	1028.340561279
33	23535013	433.986272673	419.474302829
33	23543946	434.221187161	28.507594486
33	23570357	434.824321795	142.30061095
33	23587960	435.441131921	1424.207371139
33	23588228	435.457592493	2048.17163242
33	23591654	435.537021647	178.879635289
33	23648373	436.509955159	23.080478471
33	23663881	436.757771299	964.948537372
33	23775406	438.535908556	3431.320788544
33	23814513	439.379902257	331.673420826
33	23833671	439.844074379	561.777528682
33	23887290	441.360297195	770.444778234
33	23996360	443.702130791	95.37988178
33	24072386	445.500556468	127.679836276
33	24093524	446.210575394	932.756803591
33	24128752	447.049376609	163.82129198
33	24141091	447.42989543	454.439007171
33	24165023	447.933221566	416.869454426
33	24168623	448.043849773	387.523400161
33	24185472	448.49319804	145.519538202
33	24209368	448.807485927	127.307795
33	24230073	449.303474842	851.825303668
33	24262637	449.790259227	1655.568356564
33	24282115	450.194554351	166.051969198
33	24319395	450.790382672	416.443642262
33	24322923	450.835682882	524.644140286
33	24374900	451.701396294	57.971645019
33	24492704	453.786437856	1680.491187697
33	24506701	454.053645537	419.604041812
33	24515929	454.258911358	369.988055916
33	24523942	454.450460679	202.44685336
33	24533958	454.826983343	27.880591171
33	24542158	455.136684878	73.294020588
33	24623708	456.968997887	1334.561577729
33	24669144	457.780151873	112.211336511
33	24691402	458.545066391	466.339600891
33	24691823	458.553962152	290.517321216
33	24703860	458.771373886	129.76505875
33	24728460	459.156798471	1949.016871647
33	24745399	459.508036875	383.183616655
33	24754304	459.63967939	504.333821621
33	24788979	460.616400494	1827.865125203
33	24793344	460.704471355	631.043140237
33	24793831	460.71290134	25.411638849
33	24837470	461.674686299	154.096277275
33	24854479	462.014289116	1168.545401823
33	24909810	462.827257787	3592.075629862
33	24916478	462.954634733	53.944460719
33	24973296	463.68993226	443.984773961
33	24984054	463.945628901	903.964505428
33	25029292	464.400107964	344.474718818
33	25077245	464.996723516	106.866889894
33	25150021	466.127534332	669.762213957
33	25189980	466.549690306	111.041532491
33	25190183	466.552425396	38.206027147
33	25203620	466.738435359	745.353118931
33	25280983	468.063913154	240.07749821
33	25329872	468.891843349	1145.727909624
33	25348200	469.444855136	9.02422023
33	25356345	469.653497399	91.513047292
33	25420972	471.012458736	253.618667462
33	25421341	471.022625133	1195.234703269
33	25477339	472.271554224	364.452142586
33	25499139	472.683375182	2878.3549611
33	25525680	473.207434957	93.16900073
33	25587267	474.236908356	905.489114482
33	25649613	475.475625074	930.260030262
33	25658322	475.680135553	545.876645804
33	25676274	475.904457325	749.779476641
33	25733341	477.11290812	374.618889579
33	25808062	478.48514697	870.376376513
33	25812448	478.584695328	477.408617173
33	25881227	479.713312533	1106.081882385
33	25898892	480.348043021	513.98400768
33	25974623	481.559687387	269.913460651
33	25991001	482.126295047	170.063954581
33	26068870	483.785122757	409.315410903
33	26087485	484.270380164	518.718478367
33	26121043	485.040998581	532.469632684
33	26227118	487.617753714	881.12947858
33	26254068	488.205357303	801.330584
33	26282830	488.524033952	169.681354045
33	26295828	488.777249582	396.05485477
33	26349414	490.210251289	431.654850172
33	26434179	491.712333435	1012.151849262
33	26528849	493.582016188	132.305390242
33	26543272	494.04292654	203.594730418
33	26543541	494.056917557	260.537794977
33	26549700	494.24535256	778.742471045
33	26563048	494.476764156	152.294019462
33	26636208	496.256478589	1027.378906277
33	26642935	496.416555643	2163.518005693
33	26643426	496.426219392	133.446085431
33	26669281	497.363392684	2029.263273457
33	26688363	497.833369461	1966.701958329
33	26727378	498.53539315	2113.678858475
33	26764589	499.434735437	12.361292343
33	26779403	499.971690114	1677.722869444
33	26799804	500.440291316	870.062462161
33	26812183	500.788261819	389.763898002
33	26826683	501.070100149	324.837952747
33	26849022	501.355892993	176.584935205
33	26857282	501.446588248	556.931103802
33	26875433	501.775963334	170.137832933
33	26953401	503.188255711	17.23225559
33	26983902	503.582050993	139.569723869
33	27022141	504.303405585	812.415807697
33	27101517	505.880601854	102.871287451
33	27137809	507.009736825	287.834205439
33	27145491	507.23290087	1676.288644502
33	27171885	507.812496934	917.644527647
33	27179169	507.932943272	181.053433297
33	27179787	507.944835699	396.022590107
33	27222415	509.0457856	48.838596001
33	27246497	509.472398685	2130.437166081
33	27260311	509.679152142	950.499623559
33	27343535	511.280504837	1953.751679314
33	27535439	514.750763363	37.90730282
33	27543080	514.946290023	486.963243074
33	27586971	515.934636239	295.425354775
33	27622933	516.893741911	34.574716127
33	27628472	517.155191848	633.83012522
33	27635288	517.328555591	1019.283366153
33	27665575	517.974384653	319.272693819
33	27667888	518.010414804	25.902317769
33	27703977	518.816911107	64.095825183
33	27707087	518.860790337	280.176631783
33	27726927	519.120419696	1574.476593686
33	27795472	520.605455622	197.427531317
33	27814898	520.863026731	32.99206695
33	27858665	521.284894521	224.092297346
33	27874400	521.77331208	350.621559008
33	27915047	522.614970375	621.026078316
33	27928433	522.817296709	178.242335603
33	27945725	523.034068566	70.469744815
33	27974068	523.912735174	93.230828448
33	28055803	525.275122049	1617.833077499
33	28080790	525.967616369	869.169851069
33	28098316	526.335602764	120.888333509
33	28136633	527.089083754	569.584592178
33	28196917	528.115344144	482.551431015
33	28258544	529.392236911	558.935379356
33	28268297	529.514679601	148.011508902
33	28281630	529.912268702	178.615071031
33	28298322	530.329715479	898.814102053
33	28302300	530.462646396	806.195938649
33	28368491	531.741067483	875.910365806
33	28428587	533.099235635	929.569564175
33	28448949	533.493930938	1147.674311704
33	28464131	533.839754021	942.82683912
33	28487109	534.214360997	327.088680278
33	28509802	534.879412726	146.21986748
33	28529362	535.293790527	203.784791766
33	28539773	535.60591213	639.040957333
33	28561460	536.094790255	605.416145911
33	28590408	536.542041926	318.11154528
33	28611952	536.764885141	574.449379187
33	28696270	538.200684728	35.000171245
33	28742441	538.903471013	122.215487689
33	28756219	539.153648074	441.692628727
33	28790729	540.026026489	53.22119175
33	28793984	540.126073511	734.111190039
33	28877957	542.354188968	995.923672312
33	28888903	542.654129763	1098.163285188
33	28955780	544.218937371	510.263204641
33	29032860	545.673231478	1084.448055245
33	29035234	545.751258987	121.680003961
33	29068652	546.258687273	332.571476425
33	29069140	546.268707138	672.0225292
33	29111471	547.016398379	263.867722265
33	29112658	547.056547594	582.348040323
33	29114207	547.102788292	127.624759669
33	29114848	547.120537629	855.333240186
33	29149136	547.684506154	1646.193704064
33	29159086	547.874273641	2947.929438501
33	29192158	548.194763731	477.004212634
33	29258180	549.353095478	50.310062035
33	29278162	549.536084626	101.444373189
33	29331207	550.097057693	715.75543629
33	29332189	550.111879304	1229.660443002
33	29366699	550.78328053	365.805135272
33	29418026	551.73232605	172.998732733
33	29468110	552.651355328	184.949334621
33	29474927	552.793511306	159.070887903
33	29499758	553.357970067	1445.398955139
33	29535184	554.108508144	30.031581532
33	29581571	555.090733924	1784.036108378
33	29599226	555.398726095	1270.611385302
33	29695996	557.565718329	687.920568449
33	29704008	557.728212693	317.216801522
33	29801634	559.523492931	352.783700349
33	29950544	563.183649554	20.819658731
33	30007041	564.485497651	1173.596482222
33	30008297	564.538467196	263.401361027
33	30009145	564.569997463	278.313030875
33	30046013	565.34360091	778.114927532
33	30090531	566.649938062	1634.344930908
33	30113293	566.931712477	1589.126900959
33	30139587	567.281612794	715.209455366
33	30184447	568.650115327	855.213274546
33	30193474	568.815030611	81.303953678
33	30232286	569.494213428	823.218768249
33	30250428	570.166671467	141.844175407
33	30280895	571.055625993	223.219491906
33	30290738	571.463279088	291.206214658
33	30298150	571.671279522	77.078450288
33	30323367	572.390592761	330.935792889
33	30328670	572.521098913	581.823412249
33	30372444	573.387851499	371.594461844
33	30381736	573.753961327	938.18007943
33	30392006	574.125809569	1025.178392559
33	30426440	574.834507874	119.705556516
33	30488219	575.824527556	440.042160457
33	30488857	575.836002567	1204.435100682
33	30489480	575.849569383	28.295567221
33	30513402	576.415913858	155.085354458
33	30532237	576.898786372	187.564452681
33	30536351	576.961155844	264.255356695
33	30588540	577.970283042	2285.334689534
33	30602065	578.332633475	772.415023694
33	30614950	578.539100459	87.117367731
33	30633332	578.693250318	27.331533087
33	30706161	579.91214639	484.679421519
33	30717630	580.059194976	1025.121323791
33	30777861	580.718204589	179.448064599
33	30780269	580.748308399	616.418062538
33	30933844	582.973195086	498.670210919
33	30965416	583.794775797	50.237499665
33	30972463	584.000487777	800.198709654
33	30990712	584.38225276	481.65104667
33	31031568	585.457937677	403.52268553
33	31064721	585.831521845	586.759475592
33	31095580	586.36482484	245.878564163
33	31351829	592.76662735	148.90464051
33	31370357	593.590714657	562.276386382
33	31377771	593.889490166	74.415838094
33	31381212	594.087854084	245.455996028
33	31389370	594.414452356	1993.385075208
33	31403652	594.994766207	1197.483108401
33	31414395	595.545476062	962.794764771