version 2
run PastryDHT-3-20211207-12:33:49-4660
attr Lifetime 400s
attr configname PastryDHT
attr datetime 20211207-12:33:49
attr experiment PastryDHT
attr inifile configs.ini
attr iterationvars $Lifetime=400s
attr iterationvars2 "$Lifetime=400s, $repetition=0"
attr measurement $Lifetime=400s
attr network oversim.underlay.simpleunderlay.SimpleUnderlayNetwork
attr processid 4660
attr repetition 0
attr replication #0
attr resultdir results
attr runnumber 3
attr seedset 3

vector 19  SimpleUnderlayNetwork.globalObserver.globalStatistics  "GlobalNodeList: Number of nodes"  ETV
vector 20  SimpleUnderlayNetwork.globalObserver.globalStatistics  "GlobalDhtTestMap: Number of stored DHT entries"  ETV
vector 21  SimpleUnderlayNetwork.globalObserver.globalStatistics  "LifetimeChurn: Time between deletes"  ETV
vector 22  SimpleUnderlayNetwork.globalObserver.globalStatistics  "LifetimeChurn: Session Time"  ETV
vector 23  SimpleUnderlayNetwork.globalObserver.globalStatistics  "LifetimeChurn: Time between creates"  ETV
19	13764834	200	1012
19	17091602	250	1015
19	20736391	300	1019
19	24434530	350	1006
19	27949296	400	1010
19	31821224	450	1012
19	35145830	500	1018
19	39005544	550	1000
19	43151597	600	1007
19	47090896	650	1001
19	50867594	700	992
19	55058062	750	1006
19	59402124	800	1041
19	63344527	850	1034
19	67334901	900	1008
19	71167045	950	1025
19	75351360	1000	1028
19	79534174	1050	1038
19	83598993	1100	1052
19	87884527	1150	1077
20	13764835	200	1421
20	14504425	210	1595
20	15132229	220	1739
20	15666396	230	1875
20	16398286	240	2012
20	17091603	250	2157
20	17850239	260	2320
20	18486713	270	2492
20	19233391	280	2638
20	20015968	290	2765
20	20736392	300	2912
20	21449170	310	3073
20	22218665	320	3234
20	22968566	330	3397
20	23712458	340	3556
20	24434531	350	3671
20	25124859	360	3825
20	25878261	370	3972
20	26631993	380	4143
20	27299188	390	4302
20	27949297	400	4467
20	28603555	410	4500
20	29297490	420	4521
20	30154888	430	4515
20	30972375	440	4521
20	31821225	450	4494
20	32540010	460	4509
20	33128025	470	4533
20	33727673	480	4554
20	34418393	490	4575
20	35145831	500	4564
20	35944743	510	4557
20	36744469	520	4549
20	37487192	530	4556
20	38236960	540	4551
20	39005545	550	4562
20	39888809	560	4545
20	40593770	570	4532
20	41433836	580	4540
20	42382830	590	4569
20	43151598	600	4546
20	44065722	610	4542
20	44864775	620	4536
20	45597852	630	4517
20	46393904	640	4499
20	47090897	650	4546
20	47885947	660	4536
20	48644368	670	4517
20	49352309	680	4516
20	50111540	690	4507
20	50867595	700	4480
20	51758157	710	4503
20	52542735	720	4512
20	53416833	730	4502
20	54267766	740	4487
20	55058063	750	4487
20	55960965	760	4469
20	56915451	770	4479
20	57689538	780	4481
20	58534208	790	4487
20	59402125	800	4460
20	60210857	810	4450
20	60901633	820	4464
20	61769582	830	4485
20	62630829	840	4517
20	63344528	850	4517
20	64128584	860	4513
20	64848493	870	4489
20	65624685	880	4494
20	66459470	890	4508
20	67334902	900	4526
20	67968962	910	4533
20	68662981	920	4519
20	69452936	930	4525
20	70233321	940	4537
20	71167046	950	4527
20	72075786	960	4546
20	72894571	970	4563
20	73759140	980	4535
20	74633736	990	4526
20	75351361	1000	4560
20	76195596	1010	4558
20	76862710	1020	4552
20	77827602	1030	4587
20	78722965	1040	4575
20	79534175	1050	4564
20	80340497	1060	4584
20	81249416	1070	4595
20	81989546	1080	4585
20	82695045	1090	4596
20	83598994	1100	4629
20	84567983	1110	4620
20	85389148	1120	4633
20	86295656	1130	4639
20	87113126	1140	4619
20	87884528	1150	4633
20	88686038	1160	4652
20	89414289	1170	4677
20	90351652	1180	4691
20	91138540	1190	4640
21	13772396	200.132508583	0.296040247
21	13777669	200.19531733	0.062808747
21	13783738	200.289238501	0.093921171
21	13832793	200.969690638	0.680452137
21	13842612	201.135527945	0.165837307
21	13845129	201.184002205	0.04847426
21	13848247	201.264775322	0.080773117
21	13862389	201.601074462	0.33629914
21	13876352	201.760683036	0.159608574
21	13903903	202.205089364	0.444406328
21	13924896	202.527556615	0.322467251
21	13978004	203.14989617	0.622339555
21	14021678	203.66396629	0.51407012
21	14072303	204.336235845	0.672269555
21	14166548	205.354652438	1.018416593
21	14174348	205.48266386	0.128011422
21	14209134	206.045842926	0.563179066
21	14212179	206.076997872	0.031154946
21	14300583	207.06121509	0.984217218
21	14313946	207.272192388	0.210977298
21	14326622	207.399383157	0.127190769
21	14343247	207.576305231	0.176922074
21	14347008	207.63142116	0.055115929
21	14351377	207.742754335	0.111333175
21	14353281	207.791503023	0.048748688
21	14354308	207.815131648	0.023628625
21	14478428	209.462139074	1.647007426
21	14500535	209.892648883	0.430509809
21	14539053	210.615537912	0.722889029
21	14594858	211.458955322	0.84341741
21	14600105	211.549868692	0.09091337
21	14617470	211.817984795	0.268116103
21	14652348	212.388943294	0.570958499
21	14701534	213.195468223	0.806524929
21	14707504	213.254109468	0.058641245
21	14710254	213.276631793	0.022522325
21	14731207	213.617035431	0.340403638
21	14733736	213.658178853	0.041143422
21	14809322	214.858889294	1.200710441
21	14810443	214.893883088	0.034993794
21	14825853	215.141450559	0.247567471
21	14841622	215.397875756	0.256425197
21	14906987	216.170372724	0.772496968
21	14913090	216.236893021	0.066520297
21	14921221	216.377948804	0.141055783
21	14947570	216.969502045	0.591553241
21	14959421	217.155895561	0.186393516
21	14964078	217.23731451	0.081418949
21	14991531	217.586304331	0.348989821
21	14993695	217.628069955	0.041765624
21	15108447	219.581878076	1.953808121
21	15113259	219.661990446	0.08011237
21	15153941	220.358485033	0.696494587
21	15217791	221.324997435	0.966512402
21	15219483	221.375612375	0.05061494
21	15238230	221.81219691	0.436584535
21	15249917	221.911684154	0.099487244
21	15286094	222.295926411	0.384242257
21	15292993	222.375218096	0.079291685
21	15318105	222.866497027	0.491278931
21	15331715	223.191856094	0.325359067
21	15347523	223.42374082	0.231884726
21	15367078	223.751843038	0.328102218
21	15378882	223.907426406	0.155583368
21	15382850	223.968723518	0.061297112
21	15398286	224.32761127	0.358887752
21	15398764	224.347738354	0.020127084
21	15401219	224.44156301	0.093824656
21	15408319	224.701904224	0.260341214
21	15410030	224.755765446	0.053861222
21	15420239	224.928996691	0.173231245
21	15425370	224.993682102	0.064685411
21	15447873	225.335449617	0.341767515
21	15462772	225.701148408	0.365698791
21	15481927	226.318914368	0.61776596
21	15513113	226.907708111	0.588793743
21	15563571	227.89386541	0.986157299
21	15570504	228.097154743	0.203289333
21	15571525	228.130046991	0.032892248
21	15577676	228.280718953	0.150671962
21	15578209	228.300155144	0.019436191
21	15580292	228.353586983	0.053431839
21	15582796	228.433482846	0.079895863
21	15618250	229.139096642	0.705613796
21	15627188	229.334921772	0.19582513
21	15628616	229.374318083	0.039396311
21	15628828	229.376437839	0.002119756
21	15682309	230.301429444	0.924991605
21	15687164	230.379924819	0.078495375
21	15766562	231.286243275	0.906318456
21	15814630	232.206860606	0.920617331
21	15833103	232.456920101	0.250059495
21	15873411	232.989276992	0.532356891
21	15879649	233.121660821	0.132383829
21	15947690	233.990455319	0.868794498
21	15960942	234.288543317	0.298087998
21	15989170	234.795398484	0.506855167
21	15994226	234.872177665	0.076779181
21	16007443	235.14548928	0.273311615
21	16051542	235.621098851	0.475609571
21	16078124	235.909093796	0.287994945
21	16082851	235.977727756	0.06863396
21	16094588	236.136017376	0.15828962
21	16096869	236.189885479	0.053868103
21	16108101	236.35951067	0.169625191
21	16118434	236.51254244	0.15303177
21	16124455	236.616082532	0.103540092
21	16132297	236.745938898	0.129856366
21	16199088	237.564162123	0.818223225
21	16200031	237.573918315	0.009756192
21	16213653	237.686556969	0.112638654
21	16342892	239.331955305	1.645398336
21	16356971	239.431629319	0.099674014
21	16392162	239.886825995	0.455196676
21	16429298	240.444182425	0.55735643
21	16434720	240.525461102	0.081278677
21	16440642	240.626164411	0.100703309
21	16462838	241.017432548	0.391268137
21	16560187	242.095798606	1.078366058
21	16605468	242.94360995	0.847811344
21	16627616	243.216320606	0.272710656
21	16631445	243.256037253	0.039716647
21	16695797	244.002701744	0.746664491
21	16701814	244.155046007	0.152344263
21	16733901	244.746005986	0.590959979
21	16801998	245.841497418	1.095491432
21	16817274	246.175254091	0.333756673
21	16818846	246.218872302	0.043618211
21	16849973	246.758479676	0.539607374
21	16895297	247.451056005	0.692576329
21	16903111	247.613102128	0.162046123
21	16932005	247.972629793	0.359527665
21	16959697	248.216186415	0.243556622
21	16964546	248.305078938	0.088892523
21	17092626	250.013323003	1.708244065
21	17096475	250.048178223	0.03485522
21	17128025	250.288771469	0.240593246
21	17141498	250.451069121	0.162297652
21	17144043	250.496076042	0.045006921
21	17182183	250.954765323	0.458689281
21	17260248	251.807133366	0.852368043
21	17286223	252.09488702	0.287753654
21	17291587	252.152343557	0.057456537
21	17381429	253.359147565	1.206804008
21	17389058	253.518812145	0.15966458
21	17518506	255.203590998	1.684778853
21	17586019	256.186437222	0.982846224
21	17665391	257.17745806	0.991020838
21	17721213	258.117539522	0.940081462
21	17727086	258.199937917	0.082398395
21	17745190	258.343929211	0.143991294
21	17765872	258.655822412	0.311893201
21	17779513	258.918596965	0.262774553
21	17780562	258.937093515	0.01849655
21	17802858	259.338256929	0.401163414
21	17818046	259.442658204	0.104401275
21	17834682	259.677662985	0.235004781
21	17847665	259.914095132	0.236432147
21	17854994	260.11896211	0.204866978
21	17883596	260.527245536	0.408283426
21	17973705	261.492936178	0.965690642
21	18032992	262.70105411	1.208117932
21	18034182	262.729482559	0.028428449
21	18036278	262.767885649	0.03840309
21	18102486	263.736791215	0.968905566
21	18110054	263.87601764	0.139226425
21	18118841	264.006069133	0.130051493
21	18132902	264.218370073	0.21230094
21	18141974	264.347763576	0.129393503
21	18151473	264.50480474	0.157041164
21	18157466	264.64838689	0.14358215
21	18171423	264.951764392	0.303377502
21	18236399	266.13582763	1.184063238
21	18239806	266.224161456	0.088333826
21	18268279	266.746909777	0.522748321
21	18279714	266.993490329	0.246580552
21	18295943	267.310488867	0.316998538
21	18364084	268.45454448	1.144055613
21	18431163	269.172272266	0.717727786
21	18446808	269.41309463	0.240822364
21	18456787	269.547077647	0.133983017
21	18470976	269.706617668	0.159540021
21	18511546	270.271240911	0.564623243
21	18513506	270.295575873	0.024334962
21	18524071	270.409553047	0.113977174
21	18584315	271.105466733	0.695913686
21	18600439	271.335451342	0.229984609
21	18607565	271.487343944	0.151892602
21	18661550	272.223138099	0.735794155
21	18666210	272.306278783	0.083140684
21	18682527	272.484998135	0.178719352
21	18704423	272.651271925	0.16627379
21	18753259	273.338765563	0.687493638
21	18799077	273.866858923	0.52809336
21	18825239	274.19711782	0.330258897
21	18840312	274.440575398	0.243457578
21	18895769	275.143992966	0.703417568
21	18923459	275.629184294	0.485191328
21	18940747	275.925858513	0.296674219
21	18970892	276.385229481	0.459370968
21	18989658	276.738163435	0.352933954
21	19056783	277.696385312	0.958221877
21	19058165	277.726448964	0.030063652
21	19077954	277.988584714	0.26213575
21	19086208	278.111497573	0.122912859
21	19180854	279.16161512	1.050117547
21	19204162	279.527378743	0.365763623
21	19224904	279.854970285	0.327591542
21	19388778	281.772686669	1.917716384
21	19393889	281.83874358	0.066056911
21	19478840	282.793371105	0.954627525
21	19531580	283.46771904	0.674347935
21	19559831	283.903251909	0.435532869
21	19577856	284.146300829	0.24304892
21	19585913	284.297481051	0.151180222
21	19625955	284.892456974	0.594975923
21	19649099	285.084897778	0.192440804
21	19682799	285.504715993	0.419818215
21	19694753	285.697278388	0.192562395
21	19780717	287.110795448	1.41351706
21	19806495	287.46986241	0.359066962
21	19819075	287.615492726	0.145630316
21	19912830	288.831228003	1.215735277
21	19969438	289.4546034	0.623375397
21	20008783	289.914105139	0.459501739
21	20019267	290.04356866	0.129463521
21	20094716	291.223786744	1.180218084
21	20151137	292.052088907	0.828302163
21	20151212	292.054171624	0.002082717
21	20176097	292.445600777	0.391429153
21	20198770	292.801526226	0.355925449
21	20202413	292.852000346	0.05047412
21	20268216	293.592091103	0.740090757
21	20273564	293.660753476	0.068662373
21	20374064	295.073663479	1.412910003
21	20390927	295.299469097	0.225805618
21	20401196	295.515211816	0.215742719
21	20403724	295.562671694	0.047459878
21	20404523	295.579802615	0.017130921
21	20412106	295.736205569	0.156402954
21	20436928	296.059398124	0.323192555
21	20476897	296.584407345	0.525009221
21	20491614	296.929772753	0.345365408
21	20493472	296.984661751	0.054888998
21	20524224	297.437694219	0.453032468
21	20581583	297.994872325	0.557178106
21	20626707	298.557377845	0.56250552
21	20637424	298.776933808	0.219555963
21	20640147	298.813022285	0.036088477
21	20650875	298.987713956	0.174691671
21	20814326	301.193278729	2.205564773
21	20846766	301.757628452	0.564349723
21	20853448	301.917074684	0.159446232
21	20895679	302.515482718	0.598408034
21	20924647	302.891404613	0.375921895
21	20930613	302.945388544	0.053983931
21	20941896	303.106380996	0.160992452
21	20972790	303.52701687	0.420635874
21	20998907	303.845836903	0.318820033
21	21028724	304.231349735	0.385512832
21	21068974	304.803556198	0.572206463
21	21080439	305.012983515	0.209427317
21	21081147	305.028417861	0.015434346
21	21084847	305.151340411	0.12292255
21	21085975	305.176656988	0.025316577
21	21113227	305.549959588	0.3733026
21	21137229	305.878515141	0.328555553
21	21152190	306.08212591	0.203610769
21	21156362	306.158240943	0.076115033
21	21176726	306.452778916	0.294537973
21	21186140	306.543090984	0.090312068
21	21188316	306.568554889	0.025463905
21	21220077	307.0391851	0.470630211
21	21250770	307.536795834	0.497610734
21	21296088	307.993245774	0.45644994
21	21311734	308.233575934	0.24033016
21	21333966	308.511925308	0.278349374
21	21346874	308.704118788	0.19219348
21	21365523	309.005223885	0.301105097
21	21398091	309.400856638	0.395632753
21	21411676	309.593606931	0.192750293
21	21414530	309.62874666	0.035139729
21	21428943	309.766616863	0.137870203
21	21439825	309.86920568	0.102588817
21	21453121	310.065504332	0.196298652
21	21490075	310.76600012	0.700495788
21	21491262	310.776416145	0.010416025
21	21500776	310.887870699	0.111454554
21	21502169	310.904385812	0.016515113
21	21505840	310.943260728	0.038874916
21	21540969	311.371242109	0.427981381
21	21559255	311.657688099	0.28644599
21	21565348	311.788815231	0.131127132
21	21608687	312.592522627	0.803707396
21	21644283	312.935433935	0.342911308
21	21662704	313.159553604	0.224119669
21	21665797	313.216856184	0.05730258
21	21670447	313.324643875	0.107787691
21	21670701	313.32966541	0.005021535
21	21672465	313.370612608	0.040947198
21	21675930	313.443700992	0.073088384
21	21681392	313.581091497	0.137390505
21	21688482	313.792514131	0.211422634
21	21691816	313.89377555	0.101261419
21	21693910	313.945625418	0.051849868
21	21712373	314.284516322	0.338890904
21	21790707	315.23399356	0.949477238
21	21810421	315.608137437	0.374143877
21	21816864	315.726448616	0.118311179
21	21826265	315.913528151	0.187079535
21	21872535	316.45253184	0.539003689
21	21883042	316.609731891	0.157200051
21	21902631	316.805872915	0.196141024
21	21982563	317.664502766	0.858629851
21	22053382	318.345259279	0.680756513
21	22121881	318.830510863	0.485251584
21	22168308	319.27241123	0.441900367
21	22170028	319.299325766	0.026914536
21	22181424	319.464669691	0.165343925
21	22265225	320.40157264	0.936902949
21	22273935	320.512908099	0.111335459
21	22294880	320.707528731	0.194620632
21	22322343	321.073446445	0.365917714
21	22357751	321.538463791	0.465017346
21	22405203	322.072041384	0.533577593
21	22422652	322.260559012	0.188517628
21	22464864	322.818856045	0.558297033
21	22508274	323.186305848	0.367449803
21	22578083	323.884489017	0.698183169
21	22607453	324.402292756	0.517803739
21	22608012	324.410020165	0.007727409
21	22608368	324.418408274	0.008388109
21	22624133	324.720326048	0.301917774
21	22654311	325.051619993	0.331293945
21	22664134	325.189420747	0.137800754
21	22669517	325.297588786	0.108168039
21	22722371	326.162154732	0.864565946
21	22774310	326.736059082	0.57390435
21	22801687	327.197871841	0.461812759
21	22804344	327.265238716	0.067366875
21	22804809	327.277550875	0.012312159
21	22817710	327.516612273	0.239061398
21	22879136	328.439068404	0.922456131
21	22882905	328.479380515	0.040312111
21	22889599	328.577623233	0.098242718
21	22907958	328.953797049	0.376173816
21	22940195	329.539821044	0.586023995
21	22947793	329.701340056	0.161519012
21	22991257	330.307864126	0.60652407
21	23001193	330.458335802	0.150471676
21	23018401	330.698643882	0.24030808
21	23054462	331.146285493	0.447641611
21	23081481	331.418409411	0.272123918
21	23128148	332.117862266	0.699452855
21	23145410	332.33028685	0.212424584
21	23164521	332.629175306	0.298888456
21	23172228	332.774121552	0.144946246
21	23214729	333.299984064	0.525862512
21	23226989	333.45914665	0.159162586
21	23233006	333.566522586	0.107375936
21	23233181	333.568001814	0.001479228
21	23271955	334.014560689	0.446558875
21	23272480	334.023826633	0.009265944
21	23281666	334.196594235	0.172767602
21	23302804	334.453163476	0.256569241
21	23327083	334.763401867	0.310238391
21	23329033	334.798679569	0.035277702
21	23459711	336.63235831	1.833678741
21	23469650	336.749692376	0.117334066
21	23489062	337.012078745	0.262386369
21	23583073	338.282370782	1.270292037
21	23627834	338.793833086	0.511462304
21	23646117	339.045539227	0.251706141
21	23683499	339.541555571	0.496016344
21	23689106	339.637861211	0.09630564
21	23857252	342.101900084	2.464038873
21	23859789	342.163134441	0.061234357
21	23901765	342.802548206	0.639413765
21	23928009	343.223406359	0.420858153
21	23944479	343.397343647	0.173937288
21	23961564	343.559304969	0.161961322
21	24018531	344.282337847	0.723032878
21	24062530	344.857630563	0.575292716
21	24093642	345.382780359	0.525149796
21	24095232	345.426608141	0.043827782
21	24100614	345.516285954	0.089677813
21	24103503	345.56625693	0.049970976
21	24166029	346.467613773	0.901356843
21	24197648	347.152604908	0.684991135
21	24250595	347.912071209	0.759466301
21	24260966	348.022985799	0.11091459
21	24302667	348.579262576	0.556276777
21	24304899	348.636641814	0.057379238
21	24446853	350.202544057	1.565902243
21	24458335	350.394186984	0.191642927
21	24479141	350.728879574	0.33469259
21	24531584	351.425262109	0.696382535
21	24544552	351.602957265	0.177695156
21	24621154	352.868547224	1.265589959
21	24625856	352.989696599	0.121149375
21	24641077	353.354895197	0.365198598
21	24643992	353.42235651	0.067461313
21	24658297	353.702847658	0.280491148
21	24712913	354.436415981	0.733568323
21	24743772	354.735390448	0.298974467
21	24749095	354.826863725	0.091473277
21	24780255	355.266352749	0.439489024
21	24894708	356.818916082	1.552563333
21	24899326	356.905583005	0.086666923
21	24931270	357.416192538	0.510609533
21	25030249	358.773615715	1.357423177
21	25081970	359.543647648	0.770031933
21	25089744	359.641156641	0.097508993
21	25112492	359.853198579	0.212041938
21	25129707	360.063963837	0.210765258
21	25153019	360.37060937	0.306645533
21	25162813	360.48170462	0.11109525
21	25183045	360.705463739	0.223759119
21	25199000	360.986039982	0.280576243
21	25205969	361.111497936	0.125457954
21	25231360	361.457181074	0.345683138
21	25301405	362.50665915	1.049478076
21	25303235	362.530288116	0.023628966
21	25369290	363.391988017	0.861699901
21	25394453	363.698521109	0.306533092
21	25423956	364.217444324	0.518923215
21	25452907	364.681632562	0.464188238
21	25453487	364.693702478	0.012069916
21	25457527	364.76035515	0.066652672
21	25478850	364.9174745	0.15711935
21	25588987	366.060016117	1.142541617
21	25602434	366.26321374	0.203197623
21	25631391	366.703412382	0.440198642
21	25725271	367.594793581	0.891381199
21	25759400	368.082577023	0.487783442
21	25760100	368.093277933	0.01070091
21	25836142	369.295767607	1.202489674
21	25861525	369.629587249	0.333819642
21	25870148	369.82362869	0.194041441
21	25888366	370.234063676	0.410434986
21	25944008	370.786110223	0.552046547
21	26044357	371.561134838	0.775024615
21	26099985	372.260139227	0.699004389
21	26168646	372.790183312	0.530044085
21	26256145	373.681495412	0.8913121
21	26284255	374.032643405	0.351147993
21	26314540	374.427090379	0.394446974
21	26353877	374.823977454	0.396887075
21	26371041	375.078378079	0.254400625
21	26375796	375.195401508	0.117023429
21	26376680	375.213846726	0.018445218
21	26387671	375.429674663	0.215827937
21	26394987	375.584764989	0.155090326
21	26396661	375.622721642	0.037956653
21	26397629	375.644416183	0.021694541
21	26417424	376.057404014	0.412987831
21	26436106	376.392704417	0.335300403
21	26466392	376.885130122	0.492425705
21	26470611	376.947367827	0.062237705
21	26479704	377.128728998	0.181361171
21	26481534	377.151367304	0.022638306
21	26550483	378.573586866	1.422219562
21	26551909	378.605245757	0.031658891
21	26562680	378.855136872	0.249891115
21	26582919	379.172358667	0.317221795
21	26614599	379.668963724	0.496605057
21	26680663	380.703790803	1.034827079
21	26741481	381.524060406	0.820269603
21	26792486	382.226886485	0.702826079
21	26834867	382.777215525	0.55032904
21	26884045	383.344389612	0.567174087
21	26884947	383.364302904	0.019913292
21	26913864	383.682067371	0.317764467
21	26927055	383.910849783	0.228782412
21	26997444	384.792807841	0.881958058
21	27003109	384.885555111	0.09274727
21	27041552	385.256508869	0.370953758
21	27051967	385.422890243	0.166381374
21	27082016	385.960319362	0.537429119
21	27144709	386.783379712	0.82306035
21	27165623	387.06912674	0.285747028
21	27191846	387.722800828	0.653674088
21	27199173	387.935299767	0.212498939
21	27203292	388.026524691	0.091224924
21	27220071	388.264465806	0.237941115
21	27252797	388.846725753	0.582259947
21	27270667	389.238522504	0.391796751
21	27300241	390.026788891	0.788266387
21	27307400	390.127774615	0.100985724
21	27310982	390.207613034	0.079838419
21	27322796	390.505374277	0.297761243
21	27409138	392.228589278	1.723215001
21	27414329	392.326852045	0.098262767
21	27433111	392.695056382	0.368204337
21	27450590	392.941509463	0.246453081
21	27470423	393.229716296	0.288206833
21	27473459	393.266843617	0.037127321
21	27480659	393.381638217	0.1147946
21	27490014	393.550654991	0.169016774
21	27522283	393.981171959	0.430516968
21	27539488	394.212734937	0.231562978
21	27548410	394.312978012	0.100243075
21	27554229	394.415310874	0.102332862
21	27590777	394.987114471	0.571803597
21	27591232	394.997666946	0.010552475
21	27598241	395.120684726	0.12301778
21	27610279	395.292633761	0.171949035
21	27632662	395.756215917	0.463582156
21	27638946	395.856730957	0.10051504
21	27686375	396.36300691	0.506275953
21	27694866	396.497838676	0.134831766
21	27742175	397.019131897	0.521293221
21	27761936	397.255135486	0.236003589
21	27866503	398.657207015	1.402071529
21	27882288	398.922963303	0.265756288
21	27896529	399.131001586	0.208038283
21	27897705	399.15021266	0.019211074
21	27899414	399.182352897	0.032140237
21	27907386	399.30098188	0.118628983
21	27931844	399.704014088	0.403032208
21	27937549	399.81121081	0.107196722
21	27975435	400.432407061	0.621196251
21	28022145	401.333063888	0.900656827
21	28028083	401.420797394	0.087733506
21	28057615	401.920540193	0.499742799
21	28062649	402.036944266	0.116404073
21	28125827	402.896142429	0.859198163
21	28130169	402.975233968	0.079091539
21	28131856	402.998598347	0.023364379
21	28163365	403.498490868	0.499892521
21	28208629	404.24091255	0.742421682
21	28238899	404.675092092	0.434179542
21	28274274	405.256072918	0.580980826
21	28279475	405.38390389	0.127830972
21	28328490	406.039139288	0.655235398
21	28344850	406.222928033	0.183788745
21	28368829	406.539504183	0.31657615
21	28384466	406.837260833	0.29775665
21	28404852	407.089876954	0.252616121
21	28405190	407.094286139	0.004409185
21	28426446	407.418106606	0.323820467
21	28448438	407.710484382	0.292377776
21	28462423	407.932577102	0.22209272
21	28484659	408.167516473	0.234939371
21	28493378	408.274955395	0.107438922
21	28554104	409.189351566	0.914396171
21	28562222	409.370227816	0.18087625
21	28603270	409.994182879	0.623955063
21	28609072	410.099663151	0.105480272
21	28621667	410.321457067	0.221793916
21	28644138	410.704174805	0.382717738
21	28648529	410.776036516	0.071861711
21	28661744	410.965912668	0.189876152
21	28753321	412.345882216	1.379969548
21	28774660	412.587155882	0.241273666
21	28800787	412.901948474	0.314792592
21	28822443	413.226715556	0.324767082
21	28828032	413.273544901	0.046829345
21	28859669	413.768515827	0.494970926
21	28860368	413.78353645	0.015020623
21	28879365	414.044419022	0.260882572
21	28882032	414.076430932	0.03201191
21	29005990	415.725523097	1.649092165
21	29117931	417.073790867	1.34826777
21	29157018	417.892060323	0.818269456
21	29165280	418.054492382	0.162432059
21	29205060	418.488156901	0.433664519
21	29283523	419.747824132	1.259667231
21	29430423	421.805034642	2.05721051
21	29457599	422.10415687	0.299122228
21	29507838	422.531425543	0.427268673
21	29528143	422.723737758	0.192312215
21	29528810	422.728786243	0.005048485
21	29550479	422.937131023	0.20834478
21	29562052	423.046917182	0.109786159
21	29571157	423.180214076	0.133296894
21	29602521	423.60378147	0.423567394
21	29641342	424.064907989	0.461126519
21	29648179	424.152345418	0.087437429
21	29658794	424.273519136	0.121173718
21	29678330	424.562252525	0.288733389
21	29687406	424.66685421	0.104601685
21	29721658	424.994586562	0.327732352
21	29749996	425.261072406	0.266485844
21	29795842	425.804100839	0.543028433
21	29819144	426.142949576	0.338848737
21	29821548	426.178940541	0.035990965
21	29848681	426.574070769	0.395130228
21	29881779	427.025906718	0.451835949
21	29895168	427.191083754	0.165177036
21	29901933	427.302654279	0.111570525
21	29926855	427.563532822	0.260878543
21	29959876	427.883720476	0.320187654
21	30001550	428.357239424	0.473518948
21	30042195	428.681507606	0.324268182
21	30123388	429.676530794	0.995023188
21	30125652	429.703081297	0.026550503
21	30142479	429.849431532	0.146350235
21	30145083	429.8744168	0.024985268
21	30257039	431.255308013	1.380891213
21	30258764	431.283673138	0.028365125
21	30297423	431.661591607	0.377918469
21	30298422	431.673263647	0.01167204
21	30313804	431.853116698	0.179853051
21	30315667	431.882733254	0.029616556
21	30340384	432.286489976	0.403756722
21	30340445	432.289074422	0.002584446
21	30359673	432.644745449	0.355671027
21	30384414	433.01117447	0.366429021
21	30491993	434.341104538	1.329930068
21	30760676	437.364178945	3.023074407
21	30764489	437.425208362	0.061029417
21	30795591	437.835192582	0.40998422
21	30831349	438.239725471	0.404532889
21	30852743	438.441127642	0.201402171
21	30876811	438.766425341	0.325297699
21	30937527	439.645840474	0.879415133
21	31066127	440.90414843	1.258307956
21	31075947	441.056151615	0.152003185
21	31176793	442.197551093	1.141399478
21	31234130	442.679104763	0.48155367
21	31292009	443.522007651	0.842902888
21	31409107	444.576654666	1.054647015
21	31409179	444.577653116	0.00099845
21	31464403	445.483505313	0.905852197
21	31467109	445.530054121	0.046548808
21	31492920	445.840990533	0.310936412
21	31511621	446.093160498	0.252169965
21	31533714	446.33867469	0.245514192
21	31629887	447.633966872	1.295292182
21	31689612	448.303970704	0.670003832
21	31699824	448.400055669	0.096084965
21	31721150	448.668363314	0.268307645
21	31738930	448.928178813	0.259815499
21	31740672	448.956719056	0.028540243
21	31798876	449.67316521	0.716446154
21	31811516	449.882682111	0.209516901
21	31870238	450.558445541	0.67576343
21	31905294	451.161636973	0.603191432
21	31925720	451.438651992	0.277015019
21	31954059	451.820543368	0.381891376
21	31969759	452.087689013	0.267145645
21	32096801	454.18070741	2.093018397
21	32136246	454.861023753	0.680316343
21	32138646	454.918333141	0.057309388
21	32181604	455.416155367	0.497822226
21	32186760	455.482069594	0.065914227
21	32206581	455.792387214	0.31031762
21	32210946	455.876820689	0.084433475
21	32255316	456.43628365	0.559462961
21	32309908	457.049136447	0.612852797
21	32314197	457.103087013	0.053950566
21	32376542	457.712923326	0.609836313
21	32427203	458.411552958	0.698629632
21	32440544	458.596532482	0.184979524
21	32443856	458.634964707	0.038432225
21	32472872	458.977176172	0.342211465
21	32490655	459.285387179	0.308211007
21	32504513	459.471218461	0.185831282
21	32541837	460.039101918	0.567883457
21	32576973	460.621075748	0.58197383
21	32689168	462.268226143	1.647150395
21	32705532	462.583297055	0.315070912
21	32716077	462.733680153	0.150383098
21	32744220	463.250748138	0.517067985
21	32753495	463.451503426	0.200755288
21	32781448	464.03640228	0.584898854
21	32799959	464.451561343	0.415159063
21	32991712	468.103648964	3.652087621
21	32994623	468.157973926	0.054324962
21	32997212	468.212259269	0.054285343
21	33063308	468.921086048	0.708826779
21	33083858	469.169567096	0.248481048
21	33110868	469.629711666	0.46014457
21	33122099	469.872492506	0.24278084
21	33124515	469.93304133	0.060548824
21	33167051	470.494542123	0.561500793
21	33239459	471.61066612	1.116123997
21	33252142	471.680740769	0.070074649
21	33301435	472.449175731	0.768434962
21	33347906	473.378404817	0.929229086
21	33376240	473.820788767	0.44238395
21	33378173	473.864151748	0.043362981
21	33407230	474.38004851	0.515896762
21	33407932	474.393919044	0.013870534
21	33421082	474.681657631	0.287738587
21	33439198	475.162307934	0.480650303
21	33467007	475.73985398	0.577546046
21	33479160	475.936292025	0.196438045
21	33528492	476.817344711	0.881052686
21	33557938	477.285085609	0.467740898
21	33586892	477.842450925	0.557365316
21	33598227	478.03800576	0.195554835
21	33631934	478.571808364	0.533802604
21	33668819	479.122801192	0.550992828
21	33672424	479.229124904	0.106323712
21	33719849	479.90805216	0.678927256
21	33729724	480.021744232	0.113692072
21	33801411	480.900104192	0.87835996