version 2
run PastryDHT-8-20211207-13:13:40-4660
attr Lifetime 900s
attr configname PastryDHT
attr datetime 20211207-13:13:40
attr experiment PastryDHT
attr inifile configs.ini
attr iterationvars $Lifetime=900s
attr iterationvars2 "$Lifetime=900s, $repetition=0"
attr measurement $Lifetime=900s
attr network oversim.underlay.simpleunderlay.SimpleUnderlayNetwork
attr processid 4660
attr repetition 0
attr replication #0
attr resultdir results
attr runnumber 8
attr seedset 8

vector 49  SimpleUnderlayNetwork.globalObserver.globalStatistics  "GlobalNodeList: Number of nodes"  ETV
vector 50  SimpleUnderlayNetwork.globalObserver.globalStatistics  "GlobalDhtTestMap: Number of stored DHT entries"  ETV
vector 51  SimpleUnderlayNetwork.globalObserver.globalStatistics  "LifetimeChurn: Time between deletes"  ETV
vector 52  SimpleUnderlayNetwork.globalObserver.globalStatistics  "LifetimeChurn: Session Time"  ETV
vector 53  SimpleUnderlayNetwork.globalObserver.globalStatistics  "LifetimeChurn: Time between creates"  ETV
49	10872803	200	1008
49	12321904	250	996
49	14015885	300	1012
49	15638211	350	1011
49	17215509	400	1012
49	18650099	450	1006
49	20512275	500	999
49	22492262	550	1018
49	24235650	600	1028
49	26097654	650	1017
49	27724462	700	1012
49	29455481	750	1013
49	31582976	800	1024
49	33478325	850	1028
49	35490445	900	1017
49	37378862	950	1013
49	39209432	1000	1027
49	41051394	1050	1026
49	42994284	1100	1036
49	44924398	1150	1045
50	10872804	200	1518
50	11102014	210	1721
50	11433407	220	1886
50	11783080	230	2023
50	12037693	240	2159
50	12321905	250	2302
50	12630153	260	2493
50	12886213	270	2672
50	13257556	280	2841
50	13670128	290	2986
50	14015886	300	3125
50	14303760	310	3268
50	14608812	320	3448
50	14991753	330	3640
50	15367449	340	3791
50	15638212	350	3961
50	15921155	360	4097
50	16195543	370	4244
50	16505399	380	4417
50	16905836	390	4590
50	17215510	400	4764
50	17560455	410	4827
50	17816410	420	4835
50	18096912	430	4840
50	18372872	440	4801
50	18650100	450	4794
50	19043959	460	4789
50	19400813	470	4822
50	19748189	480	4847
50	20120822	490	4827
50	20512276	500	4807
50	20856427	510	4776
50	21223929	520	4796
50	21635542	530	4813
50	22081888	540	4813
50	22492263	550	4832
50	22800463	560	4815
50	23139275	570	4811
50	23458462	580	4809
50	23899235	590	4813
50	24235651	600	4828
50	24554135	610	4840
50	25009114	620	4840
50	25446107	630	4825
50	25777120	640	4836
50	26097655	650	4819
50	26461503	660	4833
50	26798330	670	4855
50	27095338	680	4859
50	27389837	690	4846
50	27724463	700	4837
50	28122087	710	4819
50	28463686	720	4854
50	28753576	730	4850
50	29068692	740	4874
50	29455482	750	4860
50	29942049	760	4865
50	30358017	770	4849
50	30758187	780	4841
50	31107791	790	4858
50	31582977	800	4881
50	32051328	810	4883
50	32445045	820	4861
50	32735546	830	4863
50	33117002	840	4873
50	33478326	850	4879
50	33887632	860	4865
50	34348189	870	4867
50	34771055	880	4870
50	35166256	890	4867
50	35490446	900	4868
50	35892534	910	4863
50	36280319	920	4862
50	36721480	930	4848
50	37011435	940	4863
50	37378863	950	4845
50	37707311	960	4868
50	38126880	970	4851
50	38453724	980	4850
50	38861437	990	4854
50	39209433	1000	4846
50	39670679	1010	4857
50	40049804	1020	4876
50	40454006	1030	4871
50	40800015	1040	4853
50	41051395	1050	4848
50	41309919	1060	4840
50	41772201	1070	4887
50	42153773	1080	4888
50	42536004	1090	4903
50	42994285	1100	4896
50	43326454	1110	4871
50	43711453	1120	4881
50	44182687	1130	4896
50	44541642	1140	4904
50	44924399	1150	4898
50	45329643	1160	4902
50	45787109	1170	4889
50	46132627	1180	4893
50	46602666	1190	4855
51	10888709	201.206776347	1.210209777
51	10900078	201.437122736	0.230346389
51	10957021	204.033680776	2.59655804
51	10975106	204.976347586	0.94266681
51	10981047	205.387180565	0.410832979
51	10990330	206.116378302	0.729197737
51	10997021	206.696611852	0.58023355
51	11053263	208.150366693	1.453754841
51	11065824	208.481802414	0.331435721
51	11079499	209.030537901	0.548735487
51	11125769	210.663089586	1.632551685
51	11135781	211.103814443	0.440724857
51	11166666	212.827039459	1.723225016
51	11182913	213.321161038	0.494121579
51	11241424	214.499581697	1.178420659
51	11247140	214.807074234	0.307492537
51	11259220	215.334577376	0.527503142
51	11291072	216.157771391	0.823194015
51	11306547	216.572072722	0.414301331
51	11331154	217.665609648	1.093536926
51	11362233	218.667457731	1.001848083
51	11363090	218.719121597	0.051663866
51	11410736	219.511296616	0.792175019
51	11430016	219.858277928	0.346981312
51	11443458	220.308965354	0.450687426
51	11462292	220.793077904	0.48411255
51	11485659	221.643603694	0.85052579
51	11488728	221.798880924	0.15527723
51	11500477	222.15609195	0.357211026
51	11542766	223.161736589	1.005644639
51	11549568	223.480520792	0.318784203
51	11612155	225.202438477	1.721917685
51	11667771	226.43671222	1.234273743
51	11723978	227.606696157	1.169983937
51	11742385	228.156989609	0.550293452
51	11745696	228.26528803	0.108298421
51	11760727	228.831098182	0.565810152
51	11762664	229.056821946	0.225723764
51	11774489	229.521194491	0.464372545
51	11784104	230.080773528	0.559579037
51	11806521	231.115932451	1.035158923
51	11820365	231.725635074	0.609702623
51	11823654	231.876425917	0.150790843
51	11835430	232.21879206	0.342366143
51	11911592	234.825150658	2.606358598
51	11958111	236.740812874	1.915662216
51	11997566	238.248639002	1.507826128
51	12038791	240.031885784	1.783246782
51	12074203	241.993314999	1.961429215
51	12092912	242.40326203	0.409947031
51	12097017	242.503472174	0.100210144
51	12118293	243.475024926	0.971552752
51	12154854	245.098777219	1.623752293
51	12155747	245.150787858	0.052010639
51	12160685	245.370314663	0.219526805
51	12184541	246.2445746	0.874259937
51	12226183	247.371099862	1.126525262
51	12308918	249.473012967	2.101913105
51	12364956	251.621879696	2.148866729
51	12367539	251.745538173	0.123658477
51	12392255	252.341626051	0.596087878
51	12574850	257.516396115	5.174770064
51	12611733	259.119076605	1.60268049
51	12640585	260.671992268	1.552915663
51	12650302	261.149136048	0.47714378
51	12659940	261.575148777	0.426012729
51	12674470	261.951693473	0.376544696
51	12693564	262.50539166	0.553698187
51	12740471	264.072903552	1.567511892
51	12741492	264.155461914	0.082558362
51	12784539	266.16393329	2.008471376
51	12784675	266.172267971	0.008334681
51	12997584	272.619781269	6.447513298
51	13024773	273.11021579	0.490434521
51	13047629	273.602066553	0.491850763
51	13049644	273.712477546	0.110410993
51	13127432	275.987164933	2.274687387
51	13191617	277.978468897	1.991303964
51	13192441	278.03597131	0.057502413
51	13271992	280.222564924	2.186593614
51	13279122	280.360106958	0.137542034
51	13284148	280.420327635	0.060220677
51	13372684	283.324494065	2.90416643
51	13397821	283.843352624	0.518858559
51	13604793	288.231087852	4.387735228
51	13613422	288.446317997	0.215230145
51	13651485	289.489961011	1.043643014
51	13661330	289.689775531	0.19981452
51	13677833	290.30057586	0.610800329
51	13698403	290.869709521	0.569133661
51	13835936	294.392793724	3.523084203
51	13885555	295.530138163	1.137344439
51	13894519	295.810427135	0.280288972
51	13895628	295.858626064	0.048198929
51	13903477	296.116377096	0.257751032
51	13942841	296.786841164	0.670464068
51	13955030	297.377892454	0.59105129
51	13967825	297.870984743	0.493092289
51	13970208	298.062834597	0.191849854
51	13994566	299.054062717	0.99122812
51	13998354	299.25405338	0.199990663
51	14019073	300.218387571	0.964334191
51	14020356	300.293669681	0.07528211
51	14047136	301.538238517	1.244568836
51	14049308	301.710679805	0.172441288
51	14176596	305.461886943	3.751207138
51	14260312	308.157810754	2.695923811
51	14260414	308.167734683	0.009923929
51	14278552	308.875443062	0.707708379
51	14305700	310.072796499	1.197353437
51	14327365	310.885984378	0.813187879
51	14349348	311.977939187	1.091954809
51	14362088	312.61131597	0.633376783
51	14438124	314.605677825	1.994361855
51	14441036	314.693230392	0.087552567
51	14534470	317.536044791	2.842814399
51	14545750	317.861970297	0.325925506
51	14582295	318.906389841	1.044419544
51	14638703	320.975831709	2.069441868
51	14649440	321.384702836	0.408871127
51	14650555	321.42489667	0.040193834
51	14671519	322.245297331	0.820400661
51	14681233	322.821626724	0.576329393
51	14695526	323.279919412	0.458292688
51	14718523	323.974869408	0.694949996
51	14763139	325.077211187	1.102341779
51	14822934	326.508547342	1.431336155
51	14857551	326.981813078	0.473265736
51	14869295	327.20718511	0.225372032
51	14873299	327.347407636	0.140222526
51	15007972	330.450033707	3.102626071
51	15021573	330.936749886	0.486716179
51	15046288	331.372505226	0.43575534
51	15059907	332.026662174	0.654156948
51	15090815	332.803746919	0.777084745
51	15091438	332.816579583	0.012832664
51	15100275	332.956648927	0.140069344
51	15120964	333.806702963	0.850054036
51	15122124	333.9200594	0.113356437
51	15207796	336.012460808	2.092401408
51	15240505	336.502919464	0.490458656
51	15248057	336.718522125	0.215602661
51	15312806	338.025642142	1.307120017
51	15405128	341.25989824	3.234256098
51	15419292	341.612165019	0.352266779
51	15422957	341.758409514	0.146244495
51	15438841	342.173769754	0.41536024
51	15467657	343.306625478	1.132855724
51	15486162	343.834250793	0.527625315
51	15557740	346.022429396	2.188178603
51	15564864	346.479712198	0.457282802
51	15579128	347.147893213	0.668181015
51	15635062	349.854493324	2.706600111
51	15674765	351.815019587	1.960526263
51	15743609	354.130385415	2.315365828
51	15752888	354.304260551	0.173875136
51	15758542	354.440011584	0.135751033
51	15759064	354.463341596	0.023330012
51	15770259	354.904337774	0.440996178
51	15811803	356.030102011	1.125764237
51	15835251	356.576442596	0.546340585
51	15842237	356.855006302	0.278563706
51	15852212	357.307050199	0.452043897
51	15852489	357.318888614	0.011838415
51	15867951	357.672919366	0.354030752
51	15979706	362.113429676	4.44051031
51	15991393	362.406011368	0.292581692
51	16002967	362.78210864	0.376097272
51	16024145	363.301442675	0.519334035
51	16052307	364.256609187	0.955166512
51	16085444	365.384718219	1.128109032
51	16085875	365.407211349	0.02249313
51	16099745	366.044125432	0.636914083
51	16117178	366.741708975	0.697583543
51	16145513	368.305360264	1.563651289
51	16151850	368.603441342	0.298081078
51	16209995	370.400096799	1.796655457
51	16251888	372.024753381	1.624656582
51	16272574	372.793516658	0.768763277
51	16294789	373.348660361	0.555143703
51	16321989	374.169254951	0.82059459
51	16352556	375.377256397	1.208001446
51	16375255	375.734097855	0.356841458
51	16391483	376.013505549	0.279407694
51	16403189	376.522401684	0.508896135
51	16427841	377.194765339	0.672363655
51	16446811	377.85610086	0.661335521
51	16506907	380.091102881	2.235002021
51	16513610	380.280601204	0.189498323
51	16633096	382.908758482	2.628157278
51	16633514	382.916749653	0.007991171
51	16693870	384.948972502	2.032222849
51	16707448	385.309017461	0.360044959
51	16712648	385.442020332	0.133002871
51	16732892	386.27662157	0.834601238
51	16734074	386.332315489	0.055693919
51	16777995	387.466199194	1.133883705
51	16849267	389.044696841	1.578497647
51	16895951	389.85155538	0.806858539
51	16913025	390.207301198	0.355745818
51	16994300	392.214764366	2.007463168
51	17027049	393.016852385	0.802088019
51	17050786	393.935591599	0.918739214
51	17079697	394.75814251	0.822550911
51	17186366	399.020497572	4.262355062
51	17192149	399.102891582	0.08239401
51	17215100	399.979033499	0.876141917
51	17260960	400.994314775	1.015281276
51	17306730	402.054338438	1.060023663
51	17318875	402.43713084	0.382792402
51	17371712	403.655971485	1.218840645
51	17394772	404.224908086	0.568936601
51	17408803	404.775805776	0.55089769
51	17502681	407.587036986	2.81123121
51	17510065	407.96654816	0.379511174
51	17541117	409.010037676	1.043489516
51	17568197	410.400722492	1.390684816
51	17570678	410.590664137	0.189941645
51	17574021	410.847085632	0.256421495
51	17574861	410.900287251	0.053201619
51	17582084	411.503778869	0.603491618
51	17585663	411.733172984	0.229394115
51	17615350	412.938288094	1.20511511
51	17626462	413.712432407	0.774144313
51	17639944	414.465983435	0.753551028
51	17643310	414.694595413	0.228611978
51	17682396	416.32250876	1.627913347
51	17683096	416.346437215	0.023928455
51	17702373	417.24722139	0.900784175
51	17710214	417.442611494	0.195390104
51	17733484	418.253823443	0.811211949
51	17739882	418.552542313	0.29871887
51	17845001	420.956290439	2.403748126
51	17886420	421.95143814	0.995147701
51	17887310	421.976082389	0.024644249
51	17922573	423.171476826	1.195394437
51	17940738	424.084234834	0.912758008
51	17980993	425.820557111	1.736322277
51	17993791	426.286340324	0.465783213
51	17998984	426.592449992	0.306109668
51	18106524	430.504508164	3.912058172
51	18128981	431.191683889	0.687175725
51	18165267	432.234345474	1.042661585
51	18190521	432.879971788	0.645626314
51	18198869	433.126459097	0.246487309
51	18209281	433.406235163	0.279776066
51	18211228	433.491803958	0.085568795
51	18223259	434.149395672	0.657591714
51	18262784	436.174698077	2.025302405
51	18299091	437.913465591	1.738767514
51	18320468	438.64222552	0.728759929
51	18362283	439.549056516	0.906830996
51	18420070	441.121471056	1.57241454
51	18420137	441.12596492	0.004493864
51	18438483	442.034205196	0.908240276
51	18459721	443.149593529	1.115388333
51	18490016	444.579097303	1.429503774
51	18498035	445.002310032	0.423212729
51	18509121	445.551903036	0.549593004
51	18514590	445.733343217	0.181440181
51	18521447	446.104504137	0.37116092
51	18552051	446.957985587	0.85348145
51	18633951	449.207421856	2.249436269
51	18665513	450.426420928	1.218999072
51	18685064	450.901296537	0.474875609
51	18692436	451.290737233	0.389440696
51	18713478	452.186994067	0.896256834
51	18735497	452.885836982	0.698842915
51	18737181	452.953288791	0.067451809
51	18744338	453.13056238	0.177273589
51	18752200	453.37975468	0.2491923
51	18792007	454.279278881	0.899524201
51	18884228	456.553688758	2.274409877
51	18936083	457.227528367	0.673839609
51	18956860	457.826643233	0.599114866
51	19102005	461.906388073	4.07974484
51	19183275	464.041084019	2.134695946
51	19193917	464.510272079	0.46918806
51	19225328	465.363923403	0.853651324
51	19268394	465.902874318	0.538950915
51	19292342	466.512329266	0.609454948
51	19296649	466.676013993	0.163684727
51	19305958	467.120435639	0.444421646
51	19328827	467.773801225	0.653365586
51	19332716	467.952419079	0.178617854
51	19353332	468.380840123	0.428421044
51	19358289	468.596667791	0.215827668
51	19359068	468.632822898	0.036155107
51	19365409	468.97785276	0.345029862
51	19366245	469.027006009	0.049153249
51	19371000	469.115152063	0.088146054
51	19385375	469.549141018	0.433988955
51	19390697	469.682152227	0.133011209
51	19400752	469.998027861	0.315875634
51	19421106	470.691080322	0.693052461
51	19432949	471.303061089	0.611980767
51	19462928	471.904149533	0.601088444
51	19474480	472.373976228	0.469826695
51	19518127	473.630406391	1.256430163
51	19559985	474.537297542	0.906891151
51	19568452	474.770723291	0.233425749
51	19585164	475.246146432	0.475423141
51	19594222	475.448191936	0.202045504
51	19652507	477.090354977	1.642163041
51	19693451	478.366258147	1.27590317
51	19713908	479.254154369	0.887896222
51	19762923	480.194354274	0.940199905
51	19788853	480.532369812	0.338015538
51	19795316	480.785143167	0.252773355
51	19802111	481.101689467	0.3165463
51	19808508	481.593413108	0.491723641
51	19882455	483.375604205	1.782191097
51	19888912	483.662521367	0.286917162
51	20041161	488.395661549	4.733140182
51	20097996	489.339147907	0.943486358
51	20159843	490.767676034	1.428528127
51	20162934	490.901053887	0.133377853
51	20179197	491.196061571	0.295007684
51	20183328	491.383018056	0.186956485
51	20195432	491.87530981	0.492291754
51	20201013	492.096898286	0.221588476
51	20211875	492.286226844	0.189328558
51	20231348	492.637076885	0.350850041
51	20243363	493.054333522	0.417256637
51	20326030	494.89572875	1.841395228
51	20368449	495.610492436	0.714763686
51	20376825	495.773448246	0.16295581
51	20429293	497.402715512	1.629267266
51	20481618	499.344994302	1.94227879
51	20524591	500.393718452	1.04872415
51	20652492	503.417959701	3.024241249
51	20875491	510.696537524	7.278577823
51	20916719	511.828388017	1.131850493
51	20929287	512.297575304	0.469187287
51	20950993	513.118435659	0.820860355
51	20961770	513.312660161	0.194224502
51	21035481	514.966798272	1.654138111
51	21114044	516.755213835	1.788415563
51	21120852	516.892871011	0.137657176
51	21166168	518.262592342	1.369721331
51	21252720	520.846362021	2.583769679
51	21257792	521.021915352	0.175553331
51	21269496	521.225444118	0.203528766
51	21271682	521.269049642	0.043605524
51	21465475	525.063278235	3.794228593
51	21529910	526.029710787	0.966432552
51	21548599	526.759194745	0.729483958
51	21549440	526.812213501	0.053018756
51	21562319	527.284604725	0.472391224
51	21570013	527.635923584	0.351318859
51	21636691	530.049053634	2.41313005
51	21646384	530.408814144	0.35976051
51	21646806	530.425577797	0.016763653
51	21659162	531.035292171	0.609714374
51	21758042	533.734936438	2.699644267
51	21869630	535.564108361	1.829171923
51	21884969	535.79579611	0.231687749
51	21946044	536.682580068	0.886783958
51	21991670	537.694947334	1.012367266
51	22153233	541.401704748	3.706757414
51	22227034	542.815342787	1.413638039
51	22240006	543.234002996	0.418660209
51	22264174	543.746640454	0.512637458
51	22315051	544.666891801	0.920251347
51	22324406	544.850027992	0.183136191
51	22330925	544.990952072	0.14092408
51	22401039	546.958170604	1.967218532
51	22417231	547.753677114	0.79550651
51	22457305	548.964547026	1.210869912
51	22542815	551.431550068	2.467003042
51	22556172	551.928207506	0.496657438
51	22624478	553.844064021	1.915856515
51	22635065	554.130475996	0.286411975
51	22653930	554.874318055	0.743842059
51	22681062	555.867102463	0.992784408
51	22764320	559.250987928	3.383885465
51	22800195	559.990278487	0.739290559
51	22877988	562.007848187	2.0175697
51	22904218	562.721040689	0.713192502
51	22975481	565.301436499	2.58039581
51	23042459	567.269688301	1.968251802
51	23054733	567.555213715	0.285525414
51	23064076	567.798764285	0.24355057
51	23090999	568.758451316	0.959687031
51	23093270	568.879811222	0.121359906
51	23118919	569.553948266	0.674137044
51	23140213	570.024246657	0.470298391
51	23160644	570.558391909	0.534145252
51	23195574	571.74449031	1.186098401
51	23242070	573.41710246	1.67261215
51	23267689	574.13098005	0.71387759
51	23279641	574.396296638	0.265316588
51	23299455	574.949497319	0.553200681
51	23301131	575.006791756	0.057294437
51	23359739	577.091197465	2.084405709
51	23362176	577.212718998	0.121521533
51	23420107	578.899181575	1.686462577
51	23454035	579.944079847	1.044898272
51	23496257	581.308405843	1.364325996
51	23518847	582.060478176	0.752072333
51	23518951	582.064953917	0.004475741
51	23527335	582.45873128	0.393777363
51	23566145	583.774119197	1.315387917
51	23606127	584.703707246	0.929588049
51	23619057	585.090073537	0.386366291
51	23691809	586.51294759	1.422874053
51	23719257	586.965611823	0.452664233
51	23729627	587.16033807	0.194726247
51	23733564	587.226643067	0.066304997
51	23935827	590.814809184	3.588166117
51	24036838	593.218334894	2.40352571
51	24046334	593.585096921	0.366762027
51	24061585	594.114548431	0.52945151
51	24085264	594.783768669	0.669220238
51	24086021	594.805139885	0.021371216
51	24104827	595.64816826	0.843028375
51	24128955	596.273941451	0.625773191
51	24153946	597.197785664	0.923844213
51	24155359	597.321070293	0.123284629
51	24156367	597.429835351	0.108765058
51	24164479	597.777012607	0.347177256
51	24170832	597.922645786	0.145633179
51	24243675	600.190401266	2.26775548
51	24315343	602.511385932	2.320984666
51	24326667	602.752330735	0.240944803
51	24358305	603.914695792	1.162365057
51	24360570	604.048997994	0.134302202
51	24409159	605.479329749	1.430331755
51	24422320	606.168722272	0.689392523
51	24457561	607.391656624	1.222934352
51	24468616	607.678958903	0.287302279
51	24474993	607.929604265	0.250645362
51	24487186	608.51523545	0.585631185
51	24596012	610.829539499	2.314304049
51	24600341	610.964417703	0.134878204
51	24614793	611.409715298	0.445297595
51	24615700	611.450257647	0.040542349
51	24657587	612.296959287	0.84670164
51	24688145	612.597520194	0.300560907
51	24712237	613.369943757	0.772423563
51	24740607	613.870134646	0.500190889
51	24751016	613.979526811	0.109392165
51	24765541	614.291644229	0.312117418
51	24877828	616.884013576	2.592369347
51	24897726	617.330781826	0.44676825
51	24907283	617.558518471	0.227736645
51	24978572	619.116447611	1.55792914
51	25054603	620.887272506	1.770824895
51	25067553	621.20595055	0.318678044
51	25107582	622.022340555	0.816390005
51	25111033	622.174907808	0.152567253
51	25131576	622.957070454	0.782162646
51	25149431	623.340684	0.383613546
51	25213658	624.63167374	1.29098974
51	25341235	627.596444196	2.964770456
51	25354367	628.132718456	0.53627426
51	25357711	628.298422435	0.165703979
51	25410349	629.207326803	0.908904368
51	25443747	629.922811763	0.71548496
51	25449000	630.096715541	0.173903778
51	25457576	630.392335251	0.29561971
51	25510751	632.1462108	1.753875549
51	25560686	633.895104592	1.748893792
51	25563671	634.015092899	0.119988307
51	25565868	634.166484365	0.151391466
51	25629986	636.443187868	2.276703503
51	25633421	636.627293525	0.184105657
51	25642761	636.920178393	0.292884868
51	25653530	637.357603862	0.437425469
51	25684169	638.035073297	0.677469435
51	25684788	638.041062103	0.005988806
51	25752192	639.601637632	1.560575529
51	25789902	640.165201833	0.563564201
51	25794130	640.281904918	0.116703085
51	25837551	641.638246547	1.356341629
51	25939043	644.410113884	2.771867337
51	25964423	645.269129842	0.859015958
51	25997016	646.596561509	1.327431667
51	26031574	647.439320053	0.842758544
51	26060262	648.681564875	1.242244822
51	26074562	649.148811249	0.467246374
51	26122281	651.228432532	2.079621283
51	26124428	651.346642976	0.118210444
51	26139694	651.871956757	0.525313781
51	26311640	656.068033639	4.196076882
51	26416585	658.445227108	2.377193469
51	26431596	659.012245829	0.567018721
51	26433135	659.08333629	0.071090461
51	26451640	659.787301023	0.703964733
51	26456522	659.874618926	0.087317903
51	26472173	660.434010198	0.559391272
51	26532284	662.081216627	1.647206429
51	26551898	662.500538043	0.419321416
51	26577704	663.030160638	0.529622595
51	26590716	663.579740516	0.549579878
51	26602129	664.039897106	0.46015659
51	26662671	665.592126729	1.552229623
51	26676961	666.158429854	0.566303125
51	26718790	667.315210436	1.156780582
51	26719549	667.365116866	0.04990643
51	26747802	668.146094472	0.780977606
51	26774087	668.966903899	0.820809427
51	26862283	672.285132362	3.318228463
51	26897586	673.751642908	1.466510546
51	26914460	674.41876508	0.667122172
51	26934539	675.22435167	0.80558659
51	26948406	676.08644096	0.86208929
51	26952261	676.242964698	0.156523738
51	26987293	677.429406327	1.186441629
51	26998794	677.978727253	0.549320926
51	27010771	678.066814927	0.088087674
51	27105533	680.275599084	2.208784157
51	27139410	681.489544586	1.213945502
51	27180464	683.076592673	1.587048087
51	27202034	683.518241667	0.441648994
51	27208662	683.676708872	0.158467205
51	27307924	686.891742861	3.215033989
51	27310711	687.041044722	0.149301861
51	27325492	687.493471046	0.452426324
51	27328114	687.609685272	0.116214226
51	27344836	688.277576572	0.6678913
51	27379969	689.477089393	1.199512821
51	27460345	691.864584777	2.387495384
51	27552327	694.28311596	2.418531183
51	27554665	694.400091459	0.116975499
51	27556138	694.419643355	0.019551896
51	27587936	695.478431151	1.058787796
51	27617949	696.533099483	1.054668332
51	27653586	697.339498817	0.806399334
51	27701682	699.278688371	1.939189554
51	27741368	700.410523253	1.131834882
51	27766238	700.983068143	0.57254489
51	27771907	701.142353373	0.15928523
51	27779902	701.261739788	0.119386415
51	27810981	701.841335618	0.57959583
51	27826661	702.119836622	0.278501004
51	27929771	705.304392612	3.18455599
51	27934385	705.422320923	0.117928311
51	27944266	705.742015943	0.31969502
51	27957862	706.096750364	0.354734421
51	28002263	707.221742199	1.124991835
51	28011115	707.466246804	0.244504605
51	28016520	707.531954851	0.065708047
51	28016639	707.532822824	0.000867973
51	28023257	707.645905462	0.113082638
51	28033749	707.899672592	0.25376713
51	28048053	708.586834125	0.687161533
51	28171217	711.694569729	3.107735604
51	28181616	712.207145464	0.512575735
51	28189709	712.55333707	0.346191606
51	28222865	714.102080489	1.548743419
51	28225473	714.285005349	0.18292486
51	28271758	715.688251954	1.403246605
51	28275055	715.76579816	0.077546206
51	28311208	716.89543239	1.12963423
51	28376185	717.858449543	0.963017153
51	28418760	718.826357718	0.967908175
51	28433753	719.326759061	0.500401343
51	28438847	719.501263434	0.174504373
51	28505796	721.7083187	2.207055266
51	28533637	722.660364366	0.952045666
51	28540696	723.113575021	0.453210655
51	28545476	723.33861756	0.225042539
51	28548796	723.48895159	0.15033403
51	28607101	725.185603569	1.696651979
51	28624993	725.799740414	0.614136845
51	28801239	731.509508807	5.709768393
51	28808254	731.731237421	0.221728614
51	28817881	732.350224802	0.618987381
51	28857847	734.524552765	2.174327963
51	28877010	735.895097482	1.370544717
51	29044030	739.308917377	3.413819895
51	29056975	739.767104168	0.458186791
51	29096799	740.62788365	0.860779482
51	29104460	740.858239396	0.230355746
51	29120282	741.249650442	0.391411046
51	29122290	741.314770838	0.065120396
51	29175036	743.030244925	1.715474087
51	29201850	743.610391154	0.580146229
51	29206253	743.779500845	0.169109691
51	29223844	744.183903812	0.404402967
51	29247159	744.934023831	0.750120019
51	29260957	745.315266178	0.381242347
51	29280357	745.799816213	0.484550035
51	29280458	745.803539476	0.003723263
51	29313751	746.369415376	0.5658759
51	29359280	747.627276396	1.25786102
51	29376078	748.079127063	0.451850667
51	29421083	749.212947331	1.133820268
51	29440215	749.548769756	0.335822425
51	29448111	749.790761439	0.241991683
51	29453803	749.944312224	0.153550785
51	29470607	750.561905308	0.617593084
51	29476901	750.811882265	0.249976957
51	29534527	751.885732555	1.07385029
51	29582493	752.869747781	0.984015226
51	29641789	753.78067033	0.910922549
51	29684420	754.688336341	0.907666011
51	29691104	754.895720532	0.207384191
51	29723258	755.871618188	0.975897656
51	29739123	756.007189064	0.135570876
51	29756135	756.260165177	0.252976113
51	29787755	757.068035065	0.807869888
51	29804547	757.366238401	0.298203336
51	29903827	759.186324084	1.820085683
51	30048127	763.154503109	3.968179025
51	30091481	763.771028587	0.616525478
51	30094204	763.861876305	0.090847718
51	30187108	766.124379702	2.262503397
51	30187654	766.138366261	0.013986559
51	30194901	766.443264575	0.304898314
51	30246164	767.350266973	0.907002398
51	30291133	768.75215553	1.401888557
51	30326959	769.326566457	0.574410927
51	30334918	769.537332237	0.21076578
51	30380149	770.494102539	0.956770302
51	30496982	773.027503767	2.533401228
51	30559812	774.477063375	1.449559608
51	30568739	774.797132389	0.320069014
51	30582139	775.020733158	0.223600769
51	30588827	775.179395401	0.158662243
51	30601728	775.481615985	0.302220584
51	30659870	777.167290483	1.685674498
51	30708233	778.715013293	1.54772281
51	30749308	779.744244094	1.029230801
51	30823430	781.429949316	1.685705222
51	30864705	782.428187407	0.998238091
51	30885067	782.66292317	0.234735763
51	30898884	783.002547741	0.339624571
51	30904567	783.191245998	0.188698257
51	30939716	784.346317116	1.155071118
51	30962328	785.307545882	0.961228766
51	30996091	786.354326468	1.046780586
51	31013240	787.077924795	0.723598327
51	31015589	787.179296552	0.101371757
51	31066303	788.625687384	1.446390832
51	31078364	788.917305452	0.291618068
51	31089116	789.250722606	0.333417154
51	31310040	794.452685917	5.201963311
51	31322151	794.810644062	0.357958145
51	31336688	795.11720566	0.306561598
51	31408556	796.481542926	1.364337266
51	31419568	796.659908642	0.178365716
51	31437315	797.01074674	0.350838098
51	31438409	797.030415406	0.019668666
51	31443316	797.086179545	0.055764139
51	31458253	797.544612298	0.458432753
51	31511271	798.569621782	1.025009484
51	31516861	798.633058169	0.063436387
51	31649957	801.209792123	2.576733954
51	31677063	801.846435894	0.636643771
51	31699195	802.301235182	0.454799288
51	31797732	805.257612031	2.956376849
51	31813872	805.768450489	0.510838458
51	31873622	806.963288704	1.194838215
51	31917959	807.685340914	0.72205221
51	31938021	808.029439476	0.344098562
51	32141201	811.736926346	3.70748687
51	32144790	811.833943488	0.097017142
51	32178923	812.687514963	0.853571475
51	32243568	814.465474003	1.77795904
51	32253944	814.85778562	0.392311617
51	32277207	815.36264939	0.50486377
51	32314178	816.350129992	0.987480602
51	32324772	816.595377046	0.245247054
51	32348518	817.158942969	0.563565923
51	32367699	817.997099881	0.838156912
51	32417619	819.065991046	1.068891165
51	32444730	819.973376967	0.907385921
51	32445405	820.025837407	0.05246044
51	32515487	822.494682323	2.468844916
51	32553718	823.321995487	0.827313164
51	32574215	823.817760432	0.495764945
51	32590185	824.317508669	0.499748237
51	32633246	826.271641795	1.954133126
51	32634101	826.320856252	0.049214457
51	32639325	826.634410766	0.313554514
51	32692600	828.60491728	1.970506514
51	32736307	830.028265135	1.423347855
51	32757642	830.8053645	0.777099365
51	32780180	831.211240084	0.405875584
51	32820951	832.272634285	1.061394201
51	32846998	832.978937846	0.706303561
51	32847262	832.982501223	0.003563377
51	32871265	833.311475021	0.328973798
51	32880163	833.512418195	0.200943174
51	32889543	833.808453991	0.296035796
51	32901792	834.012148988	0.203694997
51	32912725	834.197785368	0.18563638
51	32946691	835.203559309	1.005773941
51	32947567	835.222454371	0.018895062
51	32971628	835.826251826	0.603797455
51	32990165	836.214171973	0.387920147
51	33004433	836.749307295	0.535135322
51	33028772	837.293976094	0.544668799
51	33038980	837.796420301	0.502444207
51	33055857	838.08050724	0.284086939
51	33058483	838.140975157	0.060467917
51	33064053	838.362821923	0.221846766