version 2
run PastryDHT-2-20211207-00:10:33-4724
attr Lifetime 300s
attr configname PastryDHT
attr datetime 20211207-00:10:33
attr experiment PastryDHT
attr inifile configs.ini
attr iterationvars $Lifetime=300s
attr iterationvars2 "$Lifetime=300s, $repetition=0"
attr measurement $Lifetime=300s
attr network oversim.underlay.simpleunderlay.SimpleUnderlayNetwork
attr processid 4724
attr repetition 0
attr replication #0
attr resultdir results
attr runnumber 2
attr seedset 2

vector 13  SimpleUnderlayNetwork.globalObserver.globalStatistics  "GlobalNodeList: Number of nodes"  ETV
vector 14  SimpleUnderlayNetwork.globalObserver.globalStatistics  "GlobalDhtTestMap: Number of stored DHT entries"  ETV
vector 15  SimpleUnderlayNetwork.globalObserver.globalStatistics  "LifetimeChurn: Time between deletes"  ETV
vector 16  SimpleUnderlayNetwork.globalObserver.globalStatistics  "LifetimeChurn: Session Time"  ETV
vector 17  SimpleUnderlayNetwork.globalObserver.globalStatistics  "LifetimeChurn: Time between creates"  ETV
13	3985251	150	520
13	5628146	200	531
13	7332369	250	538
13	8802716	300	527
13	10502811	350	519
13	12202958	400	514
13	13788314	450	505
13	15403035	500	497
13	16963857	550	496
13	18480750	600	502
13	20169236	650	514
13	21917259	700	523
13	23610103	750	506
13	25327600	800	499
13	27252251	850	515
13	29050836	900	515
13	30816702	950	522
13	32546195	1000	532
13	34336761	1050	532
13	36200102	1100	536
14	3985252	150	693
14	4270521	160	786
14	4593460	170	844
14	4934466	180	903
14	5258424	190	988
14	5628147	200	1067
14	5938193	210	1132
14	6290321	220	1217
14	6651891	230	1287
14	6986382	240	1351
14	7332370	250	1430
14	7627986	260	1513
14	7926766	270	1594
14	8237626	280	1667
14	8523927	290	1751
14	8802717	300	1812
14	9127493	310	1895
14	9434858	320	1970
14	9763410	330	2047
14	10151083	340	2129
14	10502812	350	2197
14	10860576	360	2238
14	11210563	370	2245
14	11583350	380	2236
14	11861468	390	2231
14	12202959	400	2240
14	12568250	410	2232
14	12890049	420	2234
14	13174067	430	2247
14	13481396	440	2246
14	13788315	450	2240
14	14080701	460	2221
14	14441074	470	2232
14	14772860	480	2232
14	15082867	490	2232
14	15403036	500	2219
14	15721709	510	2230
14	16043116	520	2218
14	16404361	530	2219
14	16696832	540	2220
14	16963858	550	2215
14	17249964	560	2204
14	17606365	570	2209
14	17944902	580	2204
14	18220970	590	2193
14	18480751	600	2196
14	18835541	610	2186
14	19197350	620	2181
14	19522023	630	2180
14	19825668	640	2174
14	20169237	650	2177
14	20542875	660	2187
14	20878430	670	2190
14	21271206	680	2184
14	21599658	690	2175
14	21917260	700	2180
14	22245066	710	2181
14	22570877	720	2189
14	22910078	730	2199
14	23251690	740	2174
14	23610104	750	2181
14	23916007	760	2178
14	24245554	770	2181
14	24629918	780	2191
14	24994658	790	2184
14	25327601	800	2186
14	25777552	810	2177
14	26152799	820	2182
14	26526725	830	2171
14	26864747	840	2185
14	27252252	850	2191
14	27640959	860	2200
14	27981095	870	2172
14	28340272	880	2175
14	28686208	890	2162
14	29050837	900	2175
14	29395835	910	2183
14	29742831	920	2194
14	30138211	930	2186
14	30488526	940	2189
14	30816703	950	2186
14	31130049	960	2184
14	31464140	970	2193
14	31757492	980	2204
14	32157421	990	2214
14	32546196	1000	2186
14	32911308	1010	2194
14	33301881	1020	2191
14	33711599	1030	2198
14	34038036	1040	2203
14	34336762	1050	2215
14	34686788	1060	2229
14	35027023	1070	2208
14	35415020	1080	2215
14	35844910	1090	2211
14	36200103	1100	2230
14	36578531	1110	2244
14	37019792	1120	2235
14	37321832	1130	2243
14	37638481	1140	2205
15	4009741	150.789638676	0.977810914
15	4019891	151.09049557	0.300856894
15	4044540	151.823074512	0.732578942
15	4060363	152.14048508	0.317410568
15	4081991	152.76543326	0.62494818
15	4092136	153.21906486	0.4536316
15	4099640	153.648505372	0.429440512
15	4099834	153.659314448	0.010809076
15	4102533	153.804040416	0.144725968
15	4110587	154.063442203	0.259401787
15	4163289	155.689148036	1.625705833
15	4167554	155.92985391	0.240705874
15	4179153	156.446447175	0.516593265
15	4190806	156.79762365	0.351176475
15	4217342	157.605436196	0.807812546
15	4241818	158.903447587	1.298011391
15	4263330	159.794712966	0.891265379
15	4282105	160.269851166	0.4751382
15	4297991	160.981916491	0.712065325
15	4299356	161.076611577	0.094695086
15	4299893	161.121438436	0.044826859
15	4319671	161.755248722	0.633810286
15	4344632	162.292257668	0.537008946
15	4348323	162.354579196	0.062321528
15	4351445	162.428329499	0.073750303
15	4385793	163.6973279	1.268998401
15	4439982	165.501941701	1.804613801
15	4445300	165.635747313	0.133805612
15	4506499	167.290458561	1.654711248
15	4515759	167.510467527	0.220008966
15	4519897	167.643560915	0.133093388
15	4550482	168.611093383	0.967532468
15	4605790	170.305670595	1.694577212
15	4624032	171.046830647	0.741160052
15	4630746	171.215292055	0.168461408
15	4636682	171.361433071	0.146141016
15	4640464	171.543896286	0.182463215
15	4659899	172.05989018	0.515993894
15	4697093	173.067289186	1.007399006
15	4726537	173.862084456	0.79479527
15	4751140	174.471154594	0.609070138
15	4759947	174.702869037	0.231714443
15	4773168	175.119073916	0.416204879
15	4776432	175.205117819	0.086043903
15	4805516	175.917368501	0.712250682
15	4908699	179.120211809	3.202843308
15	4926415	179.792317685	0.672105876
15	4953844	180.498173797	0.705856112
15	4971434	181.263991008	0.765817211
15	4973834	181.399262464	0.135271456
15	4982663	181.760391731	0.361129267
15	4985127	181.828546324	0.068154593
15	4997872	182.213288573	0.384742249
15	5007817	182.775086118	0.561797545
15	5028473	183.621396731	0.846310613
15	5031530	183.699432788	0.078036057
15	5037207	183.97580927	0.276376482
15	5037629	184.003190589	0.027381319
15	5091606	185.652585855	1.649395266
15	5101010	185.849304221	0.196718366
15	5136368	186.64368414	0.794379919
15	5152683	186.896976888	0.253292748
15	5159520	187.073013786	0.176036898
15	5188497	187.919190038	0.846176252
15	5198622	188.2059011	0.286711062
15	5208039	188.56956329	0.36366219
15	5219464	188.827666265	0.258102975
15	5228076	189.176603615	0.34893735
15	5249548	189.718372571	0.541768956
15	5270300	190.498625519	0.780252948
15	5295771	191.489680689	0.99105517
15	5297741	191.583110344	0.093429655
15	5299350	191.652401941	0.069291597
15	5341104	192.910046611	1.25764467
15	5350098	193.175172361	0.26512575
15	5380407	193.954906715	0.779734354
15	5381187	193.967955834	0.013049119
15	5400348	194.454178538	0.486222704
15	5412217	194.851836581	0.397658043
15	5433142	195.482664523	0.630827942
15	5470884	196.386070889	0.903406366
15	5478133	196.550576496	0.164505607
15	5487580	196.768336125	0.217759629
15	5532040	197.812917464	1.044581339
15	5543679	198.077973714	0.26505625
15	5587090	199.07344157	0.995467856
15	5645831	200.359333626	1.285892056
15	5653288	200.63595923	0.276625604
15	5665665	201.114338736	0.478379506
15	5668758	201.243593254	0.129254518
15	5669511	201.274616283	0.031023029
15	5679592	201.541794761	0.267178478
15	5680076	201.554195818	0.012401057
15	5683167	201.707689212	0.153493394
15	5685494	201.838957267	0.131268055
15	5703006	202.321145687	0.48218842
15	5704113	202.346707848	0.025562161
15	5710595	202.503965772	0.157257924
15	5739905	203.488981418	0.985015646
15	5757402	204.241193637	0.752212219
15	5768868	204.643040926	0.401847289
15	5773424	204.878023105	0.234982179
15	5781871	205.173239917	0.295216812
15	5799233	205.591895115	0.418655198
15	5833316	206.861540404	1.269645289
15	5891613	208.545544969	1.684004565
15	5924933	209.401433275	0.855888306
15	5935111	209.827051389	0.425618114
15	5991314	211.461641318	1.634589929
15	5998692	211.746394465	0.284753147
15	6005536	211.933496462	0.187101997
15	6017701	212.298933871	0.365437409
15	6052663	213.354530374	1.055596503
15	6063162	213.633745335	0.279214961
15	6114392	215.192270796	1.558525461
15	6141733	215.985085472	0.792814676
15	6206706	217.784209661	1.799124189
15	6233209	218.394679474	0.610469813
15	6264866	219.232193153	0.837513679
15	6295027	220.096612428	0.864419275
15	6295649	220.112385442	0.015773014
15	6320291	220.633136473	0.520751031
15	6388872	222.188645535	1.555509062
15	6545545	226.689089435	4.5004439
15	6567348	227.335348464	0.646259029
15	6573057	227.614009814	0.27866135
15	6573108	227.616949507	0.002939693
15	6573456	227.628397275	0.011447768
15	6627433	229.093854104	1.465456829
15	6681771	230.630613477	1.536759373
15	6690138	230.861446499	0.230833022
15	6707663	231.501677594	0.640231095
15	6725146	231.924025635	0.422348041
15	6731614	232.108365841	0.184340206
15	6747954	232.559986993	0.451621152
15	6747972	232.562014694	0.002027701
15	6762589	232.922086301	0.360071607
15	6764206	232.971782437	0.049696136
15	6775932	233.381167465	0.409385028
15	6795911	234.166532087	0.785364622
15	6804360	234.5598535	0.393321413
15	6814409	234.792822713	0.232969213
15	6818287	234.89689351	0.104070797
15	6822359	235.090264467	0.193370957
15	6822467	235.098925107	0.00866064
15	6841309	235.915803587	0.81687848
15	6845978	236.053465429	0.137661842
15	6863182	236.673317306	0.619851877
15	6870996	236.895629907	0.222312601
15	6877058	237.161143	0.265513093
15	6908480	237.953452197	0.792309197
15	6926328	238.523953322	0.570501125
15	6970553	239.6380732	1.114119878
15	7016057	240.623261525	0.985188325
15	7026622	240.993233641	0.369972116
15	7034571	241.17556032	0.182326679
15	7080536	242.449706766	1.274146446
15	7094649	242.718079546	0.26837278
15	7126290	243.702767293	0.984687747
15	7156204	244.767934594	1.065167301
15	7158173	244.826352425	0.058417831
15	7169496	245.080860217	0.254507792
15	7176760	245.246504189	0.165643972
15	7202536	246.163664148	0.917159959
15	7226851	246.664387837	0.500723689
15	7229765	246.752939897	0.08855206
15	7246906	247.271444298	0.518504401
15	7248009	247.323636378	0.05219208
15	7253897	247.702899322	0.379262944
15	7308787	249.116689549	1.413790227
15	7320327	249.613802592	0.497113043
15	7387406	251.762405567	2.148602975
15	7391533	251.92438927	0.161983703
15	7408292	252.48858632	0.56419705
15	7409321	252.527288268	0.038701948
15	7440093	253.460380406	0.933092138
15	7441462	253.488981512	0.028601106
15	7447699	253.661101514	0.172120002
15	7471659	254.630824618	0.969723104
15	7473339	254.721842277	0.091017659
15	7474472	254.781175904	0.059333627
15	7485645	255.330703616	0.549527712
15	7496348	255.616950944	0.286247328
15	7527587	256.979380638	1.362429694
15	7557514	258.072843049	1.093462411
15	7559361	258.158139022	0.085295973
15	7563219	258.306720315	0.148581293
15	7593795	259.05240569	0.745685375
15	7595037	259.076374439	0.023968749
15	7603444	259.311105268	0.234730829
15	7661680	261.176341114	1.865235846
15	7747943	264.243644611	3.067303497
15	7761646	264.59924716	0.355602549
15	7785463	265.351895054	0.752647894
15	7824850	266.458984359	1.107089305
15	7837420	266.86860487	0.409620511
15	7842293	267.038283811	0.169678941
15	7864912	267.694037015	0.655753204
15	7886726	268.531729541	0.837692526
15	7923471	269.86364292	1.331913379
15	7949264	270.940591558	1.076948638
15	7950124	270.990921914	0.050330356
15	7968122	271.633238216	0.642316302
15	7975717	271.85722498	0.223986764
15	7977356	271.922909577	0.065684597
15	7992645	272.392693727	0.46978415
15	7995121	272.507583162	0.114889435
15	8000439	272.770666454	0.263083292
15	8001795	272.854657126	0.083990672
15	8044971	273.945910422	1.091253296
15	8090660	275.161054829	1.215144407
15	8142445	276.785540869	1.62448604
15	8146830	276.992446736	0.206905867
15	8154765	277.20083678	0.208390044
15	8166740	277.783809124	0.582972344
15	8202369	278.946584362	1.162775238
15	8226618	279.654759401	0.708175039
15	8237559	279.996444483	0.341685082
15	8246903	280.338326372	0.341881889
15	8253870	280.594798813	0.256472441
15	8256297	280.673691403	0.07889259
15	8284089	281.724625069	1.050933666
15	8307241	282.394410974	0.669785905
15	8329648	283.474677425	1.080266451
15	8364233	284.790339961	1.315662536
15	8364234	284.790538565	0.000198604
15	8414041	286.376355854	1.585817289
15	8422848	286.710808059	0.334452205
15	8430152	287.034621773	0.323813714
15	8445365	287.38703886	0.352417087
15	8469403	288.024799046	0.637760186
15	8470228	288.069839164	0.045040118
15	8472581	288.171314274	0.10147511
15	8520102	289.770815536	1.599501262
15	8520653	289.804817297	0.034001761
15	8521960	289.889774792	0.084957495
15	8535995	290.559466173	0.669691381
15	8541113	290.719634819	0.160168646
15	8559420	291.259028711	0.539393892
15	8566337	291.486550311	0.2275216
15	8588095	292.12474228	0.638191969
15	8592777	292.222441558	0.097699278
15	8593521	292.241298926	0.018857368
15	8596062	292.31110604	0.069807114
15	8603036	292.554785751	0.243679711
15	8617776	292.948518171	0.39373242
15	8632129	293.429083801	0.48056563
15	8651803	293.866054959	0.436971158
15	8663635	294.131535587	0.265480628
15	8664105	294.146598566	0.015062979
15	8668489	294.415076817	0.268478251
15	8671110	294.61813	0.203053183
15	8706765	296.147795741	1.529665741
15	8708303	296.274779369	0.126983628
15	8709956	296.413788601	0.139009232
15	8712459	296.579354935	0.165566334
15	8724653	297.311310267	0.731955332
15	8781858	299.454464846	2.143154579
15	8802977	300.007435108	0.552970262
15	8821195	300.609083896	0.601648788
15	8844549	301.375209467	0.766125571
15	8848401	301.489359228	0.114149761
15	8860427	301.758005201	0.268645973
15	8888150	302.649184942	0.891179741
15	8914067	303.841749324	1.192564382
15	8918082	303.955320123	0.113570799
15	8941765	304.747351321	0.792031198
15	8945286	304.863483421	0.1161321
15	8956459	305.123350135	0.259866714
15	8958180	305.200215694	0.076865559
15	8999488	306.24656767	1.046351976
15	9016148	306.773385225	0.526817555
15	9042775	307.642626456	0.869241231
15	9043281	307.661333537	0.018707081
15	9064241	308.236606327	0.57527279
15	9067268	308.312204614	0.075598287
15	9082179	308.832262428	0.520057814
15	9090046	309.140507081	0.308244653
15	9148420	310.678696487	1.538189406
15	9148988	310.709131182	0.030434695
15	9150913	310.775682969	0.066551787
15	9168960	311.275818747	0.500135778
15	9178257	311.491537175	0.215718428
15	9188080	311.714808873	0.223271698
15	9188669	311.736808563	0.02199969
15	9193757	311.974418831	0.237610268
15	9194082	311.991726154	0.017307323
15	9216012	312.788093817	0.796367663
15	9226931	313.016774482	0.228680665
15	9232208	313.197720301	0.180945819
15	9247563	313.826063328	0.628343027
15	9255379	314.207821269	0.381757941
15	9282544	315.038766023	0.830944754
15	9320590	316.329795286	1.291029263
15	9328400	316.623560465	0.293765179
15	9342459	317.189869644	0.566309179
15	9389521	318.850872201	1.661002557
15	9395961	319.090144952	0.239272751
15	9410156	319.505851452	0.4157065
15	9421379	319.624478855	0.118627403
15	9426412	319.722788002	0.098309147
15	9460947	320.809387352	1.08659935
15	9480503	321.545467838	0.736080486
15	9491459	321.790700707	0.245232869
15	9511766	322.322826172	0.532125465
15	9527378	322.828192921	0.505366749
15	9566776	323.802546639	0.974353718
15	9614050	324.964226658	1.161680019
15	9628984	325.446891214	0.482664556
15	9633054	325.589629062	0.142737848
15	9645251	325.959777102	0.37014804
15	9669959	326.833001577	0.873224475
15	9672341	326.923932584	0.090931007
15	9674514	326.979843078	0.055910494
15	9688086	327.564494014	0.584650936
15	9718395	328.60505247	1.040558456
15	9726377	328.856248419	0.251195949
15	9735843	329.030257983	0.174009564
15	9737344	329.075463607	0.045205624
15	9738680	329.111036506	0.035572899
15	9738712	329.112391598	0.001355092
15	9741263	329.188945219	0.076553621
15	9775296	330.254958879	1.06601366
15	9789880	330.671263371	0.416304492
15	9793923	330.752558115	0.081294744
15	9844311	331.673081857	0.920523742
15	9850156	331.805549801	0.132467944
15	9855762	331.992782974	0.187233173
15	9862869	332.194930846	0.202147872
15	9870921	332.434658303	0.239727457
15	9892471	333.139291244	0.704632941
15	9899591	333.309903995	0.170612751
15	9899991	333.321413128	0.011509133
15	9922128	333.712759886	0.391346758
15	9926964	333.858278459	0.145518573
15	9981468	335.456482477	1.598204018
15	9995532	335.830341217	0.37385874
15	10009245	336.219136444	0.388795227
15	10033414	336.939380061	0.720243617
15	10062315	337.511572412	0.572192351
15	10063963	337.585894973	0.074322561
15	10071131	337.819230604	0.233335631
15	10084024	338.161202185	0.341971581
15	10091607	338.284309174	0.123106989
15	10107613	338.722905056	0.438595882
15	10112328	338.841777967	0.118872911
15	10123693	339.099265993	0.257488026
15	10207363	341.3381511	2.238885107
15	10208305	341.384864195	0.046713095
15	10209485	341.455968186	0.071103991
15	10210459	341.500061517	0.044093331
15	10231987	342.317001894	0.816940377
15	10234672	342.383494998	0.066493104
15	10236062	342.420921553	0.037426555
15	10254447	342.872469751	0.451548198
15	10255709	342.903660751	0.031191
15	10318199	344.665495309	1.761834558
15	10335120	344.954586004	0.289090695
15	10353457	345.341840592	0.387254588
15	10387079	346.344449376	1.002608784
15	10413158	347.103189292	0.758739916
15	10434715	347.807610272	0.70442098
15	10470859	348.921808778	1.114198506
15	10473705	349.049342511	0.127533733
15	10540264	351.019420135	1.970077624
15	10545637	351.135010317	0.115590182
15	10550630	351.305240974	0.170230657
15	10554043	351.431546049	0.126305075
15	10571322	352.02635264	0.594806591
15	10585339	352.508959406	0.482606766
15	10633461	354.154034977	1.645075571
15	10647300	354.658426492	0.504391515
15	10648558	354.688912978	0.030486486
15	10654113	354.866899081	0.177986103
15	10663631	355.149338215	0.282439134
15	10688797	355.730116852	0.580778637
15	10706964	356.225967838	0.495850986
15	10762952	357.579394545	1.353426707
15	10764424	357.603355184	0.023960639
15	10769849	357.711772026	0.108416842
15	10794496	358.367189417	0.655417391
15	10812811	358.974511596	0.607322179
15	10822299	359.201195379	0.226683783
15	10879725	360.567147846	1.365952467
15	10889661	361.061038237	0.493890391
15	10892680	361.201732725	0.140694488
15	10896347	361.251127147	0.049394422
15	10900826	361.308904214	0.057777067
15	10918729	361.728309078	0.419404864
15	10921411	361.846950042	0.118640964
15	10931495	362.158486412	0.31153637
15	10932053	362.177086739	0.018600327
15	10935333	362.287896077	0.110809338
15	10951776	362.830468648	0.542572571
15	11015316	364.119807125	1.289338477
15	11036341	364.789105912	0.669298787
15	11065538	365.557866866	0.768760954
15	11075483	365.792783656	0.23491679
15	11080721	365.902987642	0.110203986
15	11102404	366.478257287	0.575269645
15	11124937	367.243422706	0.765165419
15	11146194	367.822109809	0.578687103
15	11147387	367.855126827	0.033017018
15	11147660	367.867147368	0.012020541
15	11154360	368.181016909	0.313869541
15	11182935	369.022744485	0.841727576
15	11205868	369.806429481	0.783684996
15	11354756	373.961859101	4.15542962
15	11376723	374.581605616	0.619746515
15	11409211	375.368461964	0.786856348
15	11409829	375.381454227	0.012992263
15	11438853	376.026316134	0.644861907
15	11443269	376.123710214	0.09739408
15	11463948	376.808477547	0.684767333
15	11492923	377.483594235	0.675116688
15	11521163	378.096491488	0.612897253
15	11524560	378.199340092	0.102848604
15	11530507	378.403173533	0.203833441
15	11548437	379.25329819	0.850124657
15	11582639	379.962414468	0.709116278
15	11600470	380.595072439	0.632657971
15	11604065	380.728882234	0.133809795
15	11611148	381.019510329	0.290628095
15	11613175	381.098672319	0.07916199
15	11641579	382.247472234	1.148799915
15	11642728	382.295676802	0.048204568
15	11661210	382.911416739	0.615739937
15	11683902	383.816969995	0.905553256
15	11744364	386.007950785	2.19098079
15	11769797	387.038387025	1.03043624
15	11774900	387.189946539	0.151559514
15	11790192	387.532161914	0.342215375
15	11839039	389.212638405	1.680476491
15	11842759	389.323697395	0.11105899
15	11845997	389.435656581	0.111959186
15	11899867	391.272553669	1.836897088
15	11906532	391.434000748	0.161447079
15	11920236	391.932848984	0.498848236
15	12002710	394.420336547	2.487487563
15	12012555	394.593189046	0.172852499
15	12076646	396.387823253	1.794634207
15	12078120	396.430072559	0.042249306
15	12087678	396.645438249	0.21536569
15	12088122	396.653381185	0.007942936
15	12122870	397.552517959	0.899136774
15	12137196	397.933254559	0.3807366
15	12152763	398.476802673	0.543548114
15	12154275	398.547073843	0.07027117
15	12167412	399.001566236	0.454492393
15	12170795	399.088282105	0.086715869
15	12179106	399.291895909	0.203613804
15	12234840	401.00064068	1.708744771
15	12236563	401.059984904	0.059344224
15	12237426	401.092717941	0.032733037
15	12238548	401.127718795	0.035000854
15	12248812	401.387547697	0.259828902
15	12254657	401.498129447	0.11058175
15	12295476	402.628722708	1.130593261
15	12322635	403.369941944	0.741219236
15	12340206	403.792987911	0.423045967
15	12364381	404.350410699	0.557422788
15	12374908	404.779826033	0.429415334
15	12395177	405.337654423	0.55782839
15	12417486	406.09805949	0.760405067
15	12463187	407.236176079	1.138116589
15	12465157	407.284618503	0.048442424
15	12469485	407.348651077	0.064032574
15	12471381	407.378619204	0.029968127
15	12486561	407.824651217	0.446032013
15	12520923	408.853070758	1.028419541
15	12524771	408.939945981	0.086875223
15	12528759	409.050744645	0.110798664
15	12550471	409.490638212	0.439893567
15	12584795	410.523781522	1.03314331
15	12596552	411.052772243	0.528990721
15	12629910	411.849195157	0.796422914
15	12630616	411.876052353	0.026857196
15	12634044	411.983784292	0.107731939
15	12646636	412.408126396	0.424342104
15	12664120	412.93324932	0.525122924
15	12679190	413.478198138	0.544948818
15	12714944	414.553102425	1.074904287
15	12715128	414.559093907	0.005991482
15	12719173	414.715649649	0.156555742
15	12733403	415.12062351	0.404973861
15	12733458	415.124381962	0.003758452
15	12744926	415.572966978	0.448585016
15	12753502	415.798803907	0.225836929
15	12757484	415.928649587	0.12984568
15	12776553	416.485218661	0.556569074
15	12810767	417.570184044	1.084965383
15	12838218	418.289074959	0.718890915
15	12840936	418.363173099	0.07409814
15	12849166	418.613995003	0.250821904
15	12864123	419.17750472	0.563509717
15	12892385	420.066795961	0.889291241
15	12923009	420.937963415	0.871167454
15	12942564	421.259992592	0.322029177
15	12956842	421.710075934	0.450083342
15	12961477	421.896384339	0.186308405
15	13042714	424.612567651	2.716183312
15	13055209	425.281284295	0.668716644
15	13089612	426.691280027	1.409995732
15	13109779	427.509457458	0.818177431
15	13118719	428.060854835	0.551397377
15	13130076	428.403660038	0.342805203
15	13134909	428.566994578	0.16333454
15	13135093	428.579991285	0.012996707
15	13155290	429.438481994	0.858490709
15	13159322	429.631379332	0.192897338
15	13176366	430.067128902	0.43574957
15	13198051	431.045985268	0.978856366
15	13242168	431.961414723	0.915429455
15	13326435	434.514660833	2.55324611
15	13349744	435.333064024	0.818403191
15	13362635	435.864205122	0.531141098
15	13369156	436.127805533	0.263600411
15	13384210	436.667710522	0.539904989
15	13385526	436.713879547	0.046169025
15	13402815	437.42539764	0.711518093
15	13429378	438.571152664	1.145755024
15	13454149	439.202556409	0.631403745
15	13467455	439.523718535	0.321162126
15	13477879	439.842944911	0.319226376
15	13495596	440.495393847	0.652448936
15	13523338	441.41275514	0.917361293
15	13530487	441.764762015	0.352006875
15	13548550	442.524226219	0.759464204
15	13554825	442.826748599	0.30252238
15	13564143	443.197561454	0.370812855
15	13566721	443.365475273	0.167913819
15	13572217	443.648851392	0.283376119
15	13578883	444.003317732	0.35446634
15	13623811	445.563692565	1.560374833
15	13647727	446.373729612	0.810037047
15	13661872	446.710581555	0.336851943
15	13663238	446.771613831	0.061032276
15	13668853	446.978928447	0.207314616
15	13670244	447.054788133	0.075859686
15	13726712	448.585502728	1.530714595
15	13726982	448.597488849	0.011986121
15	13734387	448.776621179	0.17913233
15	13753935	449.243237133	0.466615954
15	13758291	449.429252202	0.186015069
15	13760546	449.497993425	0.068741223
15	13791769	450.085376247	0.587382822
15	13834910	451.442328992	1.356952745
15	13852349	451.998038669	0.555709677
15	13858341	452.214414717	0.216376048
15	13865017	452.47377891	0.259364193
15	13882065	453.101538635	0.627759725
15	13895366	453.833164271	0.731625636
15	13895967	453.877706691	0.04454242
15	13901423	454.131253722	0.253547031
15	13931212	455.002185804	0.870932082
15	13936771	455.338386494	0.33620069
15	13940152	455.526871153	0.188484659
15	13975268	456.375632857	0.848761704
15	13990316	457.004395092	0.628762235
15	14022553	458.027729601	1.023334509
15	14058028	459.253593981	1.22586438
15	14071515	459.763262848	0.509668867
15	14081510	460.022451888	0.25918904
15	14091590	460.325706965	0.303255077
15	14102586	460.582090444	0.256383479
15	14108457	460.723668848	0.141578404
15	14118633	461.023623832	0.299954984
15	14120607	461.090528721	0.066904889
15	14131721	461.48932456	0.398795839
15	14135826	461.676120426	0.186795866
15	14138062	461.78145139	0.105330964
15	14172678	462.569509401	0.788058011
15	14194121	463.487814996	0.918305595
15	14197516	463.61128602	0.123471024
15	14198837	463.670863257	0.059577237
15	14208106	463.943331722	0.272468465
15	14287674	465.854313914	1.910982192
15	14296708	466.040419668	0.186105754
15	14301710	466.144802237	0.104382569
15	14311321	466.43605337	0.291251133
15	14317586	466.700847122	0.264793752
15	14337716	467.226710937	0.525863815
15	14344321	467.40650206	0.179791123
15	14401985	468.952852688	1.546350628
15	14415011	469.389603241	0.436750553
15	14455640	470.462223538	1.072620297
15	14515649	471.873933122	1.411709584
15	14520069	472.017869917	0.143936795
15	14551694	473.210175148	1.192305231
15	14573017	473.573411591	0.363236443
15	14607447	474.780039418	1.206627827
15	14636058	475.533349252	0.753309834
15	14693323	477.63732526	2.103976008
15	14708941	478.009834292	0.372509032
15	14709947	478.043662459	0.033828167
15	14719786	478.232698887	0.189036428
15	14723429	478.377952342	0.145253455
15	14729341	478.660336037	0.282383695
15	14780613	480.247901175	1.587565138
15	14812937	481.269893788	1.021992613
15	14823910	481.576754733	0.306860945
15	14840777	482.173917841	0.597163108
15	14863787	482.876408728	0.702490887
15	14877175	483.227015714	0.350606986
15	14892550	483.589050535	0.362034821
15	14903004	483.993202613	0.404152078
15	14918456	484.567763997	0.574561384
15	14941601	485.234325563	0.666561566
15	14957479	485.73901465	0.504689087
15	14972779	486.359762124	0.620747474
15	15018704	487.839002245	1.479240121
15	15032532	488.284518444	0.445516199
15	15033342	488.330916157	0.046397713
15	15054049	489.295611305	0.964695148
15	15058322	489.424644742	0.129033437
15	15062815	489.538260921	0.113616179
15	15083598	490.026814919	0.488553998
15	15089894	490.258072723	0.231257804
15	15105409	490.803816998	0.545744275
15	15115892	491.052573092	0.248756094
15	15142516	491.78989577	0.737322678
15	15186159	493.221468702	1.431572932
15	15187782	493.275006101	0.053537399
15	15204830	493.965984615	0.690978514
15	15226067	494.426423178	0.460438563
15	15235388	494.823092127	0.396668949
15	15279020	496.119564973	1.296472846
15	15302996	496.781814346	0.662249373
15	15312128	497.179742323	0.397927977
15	15341421	498.071478503	0.89173618
15	15346020	498.267324661	0.195846158
15	15373807	499.127973082	0.860648421
15	15384753	499.462843719	0.334870637
15	15391012	499.692110041	0.229266322
15	15400377	499.898977026	0.206866985
15	15409657	500.320523686	0.42154666
15	15447182	501.3501497	1.029626014
15	15449129	501.435171441	0.085021741
15	15510518	503.152984523	1.717813082
15	15538694	504.106557056	0.953572533
15	15562865	505.02682363	0.920266574
15	15584413	505.782907177	0.756083547
15	15593606	506.333266114	0.550358937
15	15593692	506.338669177	0.005403063
15	15597981	506.615649869	0.276980692
15	15607252	506.876205923	0.260556054
15	15608158	506.895061612	0.018855689
15	15624746	507.262843515	0.367781903
15	15653668	508.121291541	0.858448026
15	15668086	508.734949507	0.613657966
15	15695308	509.328645314	0.593695807
15	15772853	511.739042572	2.410397258
15	15815991	513.103446137	1.364403565
15	15817607	513.187387631	0.083941494
15	15839818	513.806193589	0.618805958
15	15858518	514.274247382	0.468053793
15	15874830	514.815384984	0.541137602
15	15892160	515.517532536	0.702147552
15	15901390	515.811079455	0.293546919
15	15943221	517.245577114	1.434497659
15	15974197	518.089422507	0.843845393
15	15981282	518.333742557	0.24432005
15	15998181	518.948953348	0.615210791
15	16033290	519.619716974	0.670763626
15	16041723	519.947160477	0.327443503
15	16060582	520.543011485	0.595851008
15	16061670	520.573874292	0.030862807
15	16064122	520.663622143	0.089747851
15	16093509	521.386473708	0.722851565
15	16105425	521.716829376	0.330355668
15	16121903	522.306262209	0.589432833
15	16171711	523.541548927	1.235286718
15	16191256	523.936393964	0.394845037
15	16211422	524.609288969	0.672895005
15	16248002	525.636140195	1.026851226
15	16284185	526.493662631	0.857522436
15	16311077	527.441747738	0.948085107
15	16367269	528.899474569	1.457726831
15	16373344	529.125707568	0.226232999
15	16388258	529.587537737	0.461830169
15	16424659	530.50975541	0.922217673
15	16428980	530.65704337	0.14728796
15	16439179	530.907461916	0.250418546
15	16447944	531.330844847	0.423382931
15	16449536	531.401744061	0.070899214
15	16470263	532.050631446	0.648887385
15	16483963	532.46294207	0.412310624
15	16497837	533.010756746	0.547814676
15	16499645	533.069638696	0.05888195
15	16503059	533.258580182	0.188941486
15	16581330	536.562251929	3.303671747
15	16584470	536.631602733	0.069350804
15	16586265	536.707750201	0.076147468
15	16588285	536.818823927	0.111073726
15	16588466	536.826081856	0.007257929
15	16628534	538.08262448	1.256542624
15	16643287	538.56325163	0.48062715
15	16669670	539.18390484	0.62065321
15	16689899	539.669384593	0.485479753
15	16689961	539.671126115	0.001741522
15	16690455	539.685651172	0.014525057
15	16695005	539.89633894	0.210687768
15	16711202	540.662962329	0.766623389
15	16715431	540.803829084	0.140866755
15	16726293	541.143690042	0.339860958
15	16737037	541.65198792	0.508297878
15	16740673	541.879497682	0.227509762
15	16741200	541.918861122	0.03936344
15	16861661	546.646141299	4.727280177