version 2
run PastryDHT-1-20211207-00:02:23-4724
attr Lifetime 200s
attr configname PastryDHT
attr datetime 20211207-00:02:23
attr experiment PastryDHT
attr inifile configs.ini
attr iterationvars $Lifetime=200s
attr iterationvars2 "$Lifetime=200s, $repetition=0"
attr measurement $Lifetime=200s
attr network oversim.underlay.simpleunderlay.SimpleUnderlayNetwork
attr processid 4724
attr repetition 0
attr replication #0
attr resultdir results
attr runnumber 1
attr seedset 1

vector 7  SimpleUnderlayNetwork.globalObserver.globalStatistics  "GlobalNodeList: Number of nodes"  ETV
vector 8  SimpleUnderlayNetwork.globalObserver.globalStatistics  "GlobalDhtTestMap: Number of stored DHT entries"  ETV
vector 9  SimpleUnderlayNetwork.globalObserver.globalStatistics  "LifetimeChurn: Session Time"  ETV
vector 10  SimpleUnderlayNetwork.globalObserver.globalStatistics  "LifetimeChurn: Time between creates"  ETV
vector 11  SimpleUnderlayNetwork.globalObserver.globalStatistics  "LifetimeChurn: Time between deletes"  ETV
7	4893877	150	522
7	7127052	200	526
7	9437570	250	522
7	11680685	300	514
7	14074692	350	510
7	16241834	400	516
7	18874016	450	544
7	21358408	500	553
7	23737094	550	528
7	26085451	600	528
7	28661201	650	519
7	31173412	700	528
7	33326429	750	500
7	35712837	800	513
7	38220951	850	526
7	40524596	900	525
7	43000631	950	523
7	45320655	1000	491
7	47665534	1050	517
7	50026648	1100	501
8	4893878	150	633
8	5316864	160	709
8	5744110	170	773
8	6138427	180	842
8	6601625	190	916
8	7127053	200	970
8	7611322	210	1048
8	8033130	220	1122
8	8497983	230	1190
8	8959068	240	1259
8	9437571	250	1328
8	9951411	260	1390
8	10337188	270	1466
8	10744009	280	1532
8	11212282	290	1605
8	11680686	300	1670
8	12218242	310	1727
8	12668172	320	1782
8	13111396	330	1866
8	13592119	340	1931
8	14074693	350	2009
8	14487492	360	2042
8	14928975	370	2053
8	15353011	380	2053
8	15768679	390	2051
8	16241835	400	2057
8	16755108	410	2045
8	17292040	420	2041
8	17799235	430	2043
8	18314658	440	2053
8	18874017	450	2059
8	19429989	460	2065
8	19915050	470	2065
8	20371181	480	2064
8	20860543	490	2059
8	21358409	500	2073
8	21809461	510	2078
8	22254235	520	2092
8	22867568	530	2088
8	23314871	540	2079
8	23737095	550	2087
8	24183042	560	2093
8	24591081	570	2092
8	25089275	580	2113
8	25575597	590	2114
8	26085452	600	2122
8	26614952	610	2123
8	27118797	620	2133
8	27560931	630	2129
8	28110832	640	2137
8	28661202	650	2115
8	29064560	660	2125
8	29560900	670	2141
8	30130702	680	2130
8	30654926	690	2135
8	31173413	700	2128
8	31616928	710	2141
8	32107583	720	2142
8	32495204	730	2147
8	32914667	740	2138
8	33326430	750	2136
8	33780983	760	2118
8	34353692	770	2128
8	34876830	780	2133
8	35335731	790	2123
8	35712838	800	2119
8	36182976	810	2096
8	36640918	820	2079
8	37172906	830	2094
8	37699819	840	2112
8	38220952	850	2090
8	38724242	860	2082
8	39169997	870	2087
8	39619406	880	2080
8	40084583	890	2088
8	40524597	900	2080
8	41010918	910	2089
8	41533254	920	2086
8	42052820	930	2070
8	42515500	940	2071
8	43000632	950	2101
8	43456932	960	2101
8	43927070	970	2083
8	44334417	980	2077
8	44778117	990	2057
8	45320656	1000	2053
8	45774028	1010	2051
8	46217792	1020	2067
8	46692921	1030	2068
8	47155268	1040	2082
8	47665535	1050	2062
8	48102906	1060	2059
8	48585025	1070	2053
8	49042199	1080	2050
8	49512688	1090	2048
8	50026649	1100	2045
8	50493231	1110	2061
8	51002545	1120	2052
8	51499806	1130	2040
8	51965866	1140	2015
9	4913100	150.501226683	6.790232031
9	4913908	150.554838889	56.962449981
9	4936270	151.100997401	27.929619835
9	4948554	151.467459662	72.777836079
9	4999614	152.848049785	104.521669157
9	5003298	152.925677527	54.73244152
9	5008661	153.068231625	207.505430518
9	5021650	153.413102876	203.443582914
9	5027238	153.570686986	152.147040957
9	5052503	154.337841865	69.146745438
9	5058127	154.485869868	377.496390914
9	5073562	154.895951769	568.90099358
9	5077762	155.035174654	212.322338312
9	5106730	155.801772618	54.944649082
9	5113563	155.986197448	155.984899673
9	5170924	157.059670886	200.670822952
9	5181533	157.264067093	809.007398343
9	5184846	157.319731346	62.821665432
9	5244722	158.500589611	162.406897612
9	5251881	158.667875725	374.564733374
9	5252481	158.688682803	170.570656905
9	5252641	158.693469455	288.61382884
9	5266331	158.984332641	270.912264734
9	5276320	159.120820602	102.19315546
9	5286662	159.305261248	58.612724526
9	5287791	159.327738417	179.820616282
9	5297535	159.555877952	190.91602638
9	5311534	159.864644846	6.158127464
9	5325785	160.31787653	9.234491937
9	5339908	160.87240769	15.81244695
9	5340050	160.875913078	20.947823197
9	5369601	161.657756079	274.96933892
9	5378329	161.939748913	122.121054713
9	5403781	162.412519578	123.192885879
9	5408962	162.589390001	57.856664062
9	5413570	162.71384806	211.802408399
9	5416306	162.781673986	86.937358003
9	5436049	163.321347986	107.818944646
9	5457037	163.688239075	507.706709889
9	5498415	164.398005171	25.529846714
9	5518240	164.709261373	74.919870471
9	5523054	164.799030581	215.995043845
9	5526071	164.872639467	59.652363887
9	5538741	165.254869745	242.165211598
9	5574026	165.975678487	55.864273268
9	5579362	166.082108433	151.943198035
9	5651458	167.546330646	159.757424459
9	5681501	168.437227093	157.027124108
9	5686598	168.621243254	83.920648125
9	5692113	168.728154341	151.301518578
9	5696753	168.802872196	15.238928611
9	5711173	169.108747667	70.080104673
9	5735731	169.801451225	75.403666389
9	5753115	170.198631025	14.177016466
9	5767015	170.443797406	361.797409923
9	5787160	171.041312513	819.988316736
9	5802021	171.59227615	181.129707911
9	5802924	171.630155704	171.819587526
9	5823053	172.116559729	124.350109803
9	5823623	172.130597946	81.914654094
9	5835529	172.396806591	318.443130437
9	5840187	172.535110543	209.481690064
9	5859876	173.068884229	4.351969139
9	5868085	173.221203555	796.814140193
9	5885090	173.717654414	841.78537081
9	5888481	173.823164686	22.228526472
9	5910464	174.46563616	300.255545569
9	5949490	175.724879396	791.728706969
9	5949950	175.740190344	17.851536986
9	5985011	176.418634518	125.152156714
9	5986520	176.458716169	176.03140251
9	5986682	176.46108523	38.9249101
9	5996288	176.779156748	32.62662461
9	6017999	177.278686597	16.689577747
9	6044246	177.909978747	428.377259338
9	6066638	178.42888499	72.630025568
9	6079335	178.739701706	84.422337204
9	6115450	179.490329435	143.405478317
9	6125313	179.688684373	312.485601499
9	6137565	179.973251733	74.681084601
9	6144877	180.190158532	170.766070921
9	6146994	180.239966731	78.848652778
9	6174768	180.809497505	235.971662299
9	6178183	180.892315575	42.877086501
9	6187517	181.087394372	529.602318767
9	6221315	181.682100321	0.508579125
9	6240443	182.258428302	185.967681803
9	6251707	182.495835225	22.112272171
9	6284729	183.093202653	242.483695389
9	6315197	183.800604966	196.398188807
9	6317454	183.847438128	289.576981293
9	6354558	184.498379228	83.769427419
9	6360337	184.580572631	122.144585185
9	6368690	184.768355879	27.055419279
9	6413573	185.704648083	63.339918426
9	6419302	185.836160658	26.476372391
9	6421323	185.872364738	237.095747749
9	6440514	186.318834721	431.40638984
9	6490935	187.334715023	185.736881445
9	6491398	187.342853457	565.732427348
9	6537372	188.619961281	72.674731187
9	6540737	188.717819151	547.145283045
9	6558842	189.130709916	88.658291355
9	6567938	189.285001134	152.565206592
9	6585932	189.589640844	1.161156013
9	6602705	190.038191201	101.896625377
9	6615931	190.445322421	3.647246159
9	6619698	190.51857342	870.131116705
9	6620462	190.53178566	229.817625033
9	6630590	190.75866699	690.831124859
9	6637479	190.939534455	97.747158806
9	6639403	191.002861231	29.181786706
9	6641104	191.05483158	161.148452875
9	6642773	191.097049904	433.480202275
9	6653863	191.248535858	317.468742612
9	6673552	191.660301903	214.517665806
9	6696662	192.296118028	128.761055803
9	6709454	192.523518628	223.932178624
9	6729202	192.803787433	17.02967269
9	6752802	193.197254192	113.982462906
9	6768997	193.545726876	482.528653982
9	6773097	193.658397631	282.994438824
9	6777507	193.759348186	318.505025867
9	6799790	194.193085928	41.376855995
9	6816696	194.461699757	59.032652486
9	6828983	194.62364282	592.109707714
9	6839867	194.810642087	163.522947881
9	6841367	194.842409603	520.130321259
9	6843199	194.883690781	527.831419945
9	6852132	195.031355103	77.434581396
9	6868180	195.317547252	2.16541631
9	6912861	196.109241073	13.319916212
9	6927564	196.320177755	248.629201809
9	6931259	196.376286142	529.49179068
9	6931619	196.382437099	9.056447261
9	6935469	196.432735416	69.3673882
9	7004254	197.650354295	31.083627326
9	7022180	198.03038164	146.229217411
9	7036870	198.232622452	350.154224757
9	7042060	198.30527994	0.408850337
9	7111173	199.669355673	50.12012905
9	7115601	199.756548704	172.850660551
9	7126530	199.993784177	242.416432298
9	7160514	200.514210907	247.287816446
9	7161983	200.547846572	197.703630978
9	7170703	200.793028296	298.915984729
9	7199679	201.371647589	198.771023659
9	7201974	201.419631006	294.650736383
9	7215810	201.711265948	20.971332432
9	7228625	202.018955276	313.066048303
9	7246980	202.409643457	66.551129814
9	7269190	202.87594167	331.610843585
9	7291572	203.25588572	10.910793003
9	7360947	204.559097771	10.15036084
9	7364542	204.628901407	86.810361843
9	7370589	204.775383357	61.132615317
9	7416803	205.732117304	200.16009907
9	7423798	205.868539493	48.188233698
9	7425932	205.913275746	754.561721189
9	7442166	206.164581403	139.661326142
9	7468032	206.547247891	82.926417017
9	7478381	206.805501583	111.235990725
9	7478840	206.823768184	101.960676591
9	7487467	207.100542928	74.39150356
9	7488635	207.138675919	3.136498018
9	7501740	207.453678587	198.726802505
9	7520995	207.962810581	987.474201539
9	7530631	208.165710951	175.253481094
9	7551244	208.633926904	48.82676463
9	7564629	208.909421175	403.724927948
9	7574208	209.181066608	111.561445481
9	7610718	209.977981331	28.024705392
9	7639996	210.732305108	229.182457358
9	7646643	210.879405613	438.023381298
9	7663613	211.246864577	460.063444452
9	7687475	211.889802926	252.222639041
9	7717090	212.808953348	37.251630932
9	7732372	213.166037515	179.744259611
9	7750813	213.601462275	122.204642201
9	7772203	214.294524967	52.684453241
9	7775765	214.414187347	118.160440859
9	7776395	214.437157675	109.901416345
9	7778315	214.497591966	326.420894579
9	7790426	214.799862318	166.786500198
9	7792685	214.860375394	194.529559119
9	7794353	214.883995808	376.448483916
9	7809455	215.263206065	664.380544841
9	7810410	215.282667492	232.890802677
9	7818624	215.483539169	19.702138073
9	7830551	215.720982144	42.017748428
9	7855304	216.411837223	252.960217002
9	7880019	216.901613241	10.967818744
9	7910083	217.464191858	241.27917352
9	7933458	217.982946574	97.136786805
9	8005041	219.387230168	133.571497654
9	8007030	219.449333524	160.229723025
9	8072690	220.824858646	552.506702348
9	8088633	221.329664918	46.848791212
9	8089640	221.354341767	369.597160146
9	8108120	221.615383999	134.415493587
9	8112707	221.720042399	66.108700072
9	8141185	222.44308079	119.2936798
9	8151404	222.646536918	163.382708887
9	8174298	223.139035445	190.150569562
9	8186142	223.389874601	428.649582997
9	8208932	223.903224754	235.84162404
9	8217446	224.148272028	558.43325703
9	8221054	224.252675142	162.173435349
9	8230704	224.469113702	115.283751608
9	8247367	224.828488326	2.915498612
9	8259684	225.006433516	8.407658264
9	8267188	225.14424874	38.406546807
9	8278076	225.437936039	65.21208935
9	8284735	225.586149359	139.959713173
9	8297899	225.865357315	195.457990769
9	8299315	225.893151579	231.95508801
9	8304163	225.987498027	351.070992641
9	8308385	226.068541498	7.036589316
9	8350705	227.031946233	196.51672267
9	8382021	227.75453807	310.167051714
9	8387896	227.82372313	37.596822814
9	8398646	227.978063591	80.164120698
9	8421418	228.573709987	233.853523886
9	8482237	229.769780301	38.836037046
9	8485716	229.828963203	105.248636726
9	8508219	230.203581723	352.209619682
9	8520047	230.46406934	120.531289692
9	8548637	231.121633863	541.217432657
9	8689052	233.735840918	426.447821722
9	8712109	234.171300235	123.137449477
9	8772561	235.425087928	36.532705262
9	8789703	235.82618112	191.779670671
9	8793698	235.911910594	579.347004244
9	8798182	235.987693671	219.679766738
9	8841727	237.069991739	475.88488929
9	8844754	237.164866881	238.902558827
9	8850833	237.393168765	316.600701725
9	8861538	237.650443205	265.292139073
9	8862010	237.666623328	110.346096509
9	8894131	238.274172902	32.115194237
9	8920904	239.140762342	295.533979099
9	8945251	239.723174887	648.730783829
9	8948274	239.775129722	115.505474895
9	8948458	239.779621866	203.552308838
9	8953094	239.883729785	117.420355581
9	8965574	240.116734897	167.522387674
9	8966996	240.138083673	208.570692796
9	8974597	240.240946951	38.881796663
9	8995859	240.702722141	17.865750597
9	9012748	241.101664284	120.416379707
9	9021554	241.268585343	179.02127483
9	9036635	241.593943087	51.161588891
9	9067056	242.250000393	27.625809508
9	9070853	242.320994671	140.919860479
9	9109395	243.052062572	158.13197655
9	9123026	243.299418623	60.821491966
9	9125122	243.372974506	742.323216757
9	9137712	243.77995484	148.200985593
9	9139863	243.84095071	462.006978013
9	9141579	243.875788807	256.763635816
9	9143808	243.929170731	24.152335543
9	9158367	244.201256867	58.367511087
9	9165302	244.364033571	61.709910293
9	9182935	244.805388038	8.041835278
9	9184593	244.834769096	363.7897965
9	9234705	245.915820152	48.473883066
9	9251136	246.225373951	350.208352469
9	9264642	246.527788782	464.767351634
9	9279809	246.889499682	329.821759755
9	9293849	247.193525706	181.074081579
9	9321633	247.86137156	9.758416841
9	9378435	248.642912378	40.934359075
9	9383956	248.787107647	100.136779999
9	9416618	249.511911221	985.261258805
9	9426930	249.825037801	57.655764188
9	9444393	250.113831316	38.175479142
9	9454234	250.26943268	36.311205132
9	9455193	250.28654492	475.214362365
9	9469899	250.591500285	208.064615836
9	9514720	251.324007033	837.638774504
9	9558345	252.4033099	466.897846807
9	9574673	252.733624198	52.615080764
9	9615880	253.242346835	113.658508836
9	9643101	253.914853409	208.499008105
9	9650651	254.130403134	192.785247326
9	9656508	254.217524793	335.007428304
9	9661905	254.300618851	358.998062774
9	9682584	254.649130243	29.971184804
9	9706894	255.066458189	365.259079734
9	9726372	255.347810743	232.364406818
9	9736630	255.545717033	296.749463714
9	9795458	256.549529348	139.0626395
9	9822526	257.175752013	187.456720864
9	9834620	257.36571253	2.434104505
9	9915231	258.973095991	284.225140647
9	9918796	259.088651136	51.495547331
9	9959195	260.192057551	363.451176887
9	9959998	260.213614479	177.524781068
9	9964457	260.317891981	55.037457095
9	10009324	261.360715612	93.971049408
9	10016012	261.596797311	139.862979388
9	10045018	262.273248899	356.602325499
9	10053234	262.579150434	388.566471576
9	10069690	263.037029342	786.182850338
9	10070938	263.075811943	597.359022878
9	10086593	263.459382607	240.967250728
9	10101574	263.69529276	262.339890647
9	10128218	264.176389016	965.030096857
9	10142094	264.627930687	196.11875966
9	10145005	264.717120024	283.244497473
9	10151862	264.92423495	152.515474681
9	10153987	264.993635482	80.998293325
9	10245780	267.285026563	43.626680057
9	10266346	268.006628303	9.281203955
9	10271232	268.189881658	10.604480823
9	10295457	268.843080345	326.782850109
9	10323289	269.615690226	422.452478908
9	10353538	270.468807455	195.286447329
9	10371759	271.004518913	111.448145291
9	10387162	271.315066985	241.102860905
9	10398956	271.664659327	14.043066229
9	10411081	271.971417167	168.635047454
9	10416443	272.139190696	74.632312963
9	10429499	272.430839239	70.785116752
9	10475759	273.328178552	71.210777905
9	10498196	273.950782002	8.655854784
9	10500768	274.010702987	363.000248529
9	10512671	274.27013804	65.93281496
9	10520247	274.39860942	76.573047341
9	10537790	274.74792556	25.865401224
9	10546197	274.925157666	83.867475558
9	10551368	275.074309145	285.235842231
9	10628572	276.875023884	436.948078156
9	10630888	276.940632586	197.880509755
9	10633178	277.001158375	160.542355493
9	10635511	277.071970331	87.814667526
9	10639073	277.161012092	87.007514075
9	10645475	277.305725062	10.197829197
9	10647101	277.36308423	395.310087678
9	10662301	277.80245431	570.115410626
9	10668441	277.998344567	50.847777618
9	10711003	279.050732862	30.802899677
9	10717788	279.288362245	376.816252998
9	10723658	279.426333662	549.348316332
9	10749347	280.119424348	97.275029227
9	10794519	281.227782626	29.920627657
9	10847491	282.347672818	537.56737674
9	10866524	282.700390202	10.806105121
9	10884390	283.024855855	192.735999034
9	10898315	283.269014123	61.308005272
9	10904402	283.423827685	698.812893213
9	10915741	283.739031122	245.041321067
9	10934869	284.253991363	8.386584557
9	10936492	284.285223673	321.664244344
9	10945121	284.368120768	889.389387365
9	10971852	284.816092597	356.392629389
9	11010716	285.655394945	70.400722039
9	11017009	285.76508313	6.703248692
9	11039376	286.238246413	137.548039194
9	11042315	286.279194699	230.010467493
9	11048975	286.369562012	1033.170474045
9	11083407	287.126786019	27.543143042
9	11090937	287.3479972	159.908647805
9	11094057	287.415054947	47.186579581
9	11146914	288.561966872	29.386570122
9	11167067	289.003447422	19.951422147
9	11167385	289.007914538	64.477862127
9	11197388	289.658844458	132.373655372
9	11230822	290.49267189	13.013900259
9	11234869	290.543506003	634.685381848
9	11240024	290.633533413	60.485783294
9	11244130	290.71726265	67.255808667
9	11248068	290.806796883	79.206529473
9	11265129	291.183442996	347.734122353
9	11294664	291.802978319	14.935769579
9	11312336	292.162370149	62.104233775
9	11328430	292.413676204	2.953309302
9	11333123	292.502151703	20.071891552
9	11335193	292.538265561	136.291875895
9	11361977	293.153071829	257.011086796
9	11362048	293.154655646	218.452150483
9	11381395	293.588516577	78.434922762
9	11390838	293.810767155	181.607444597
9	11394002	293.859390997	163.698460238
9	11407617	294.071837877	369.088104323
9	11445626	294.870347919	21.232446731
9	11448015	294.915725723	80.08841526
9	11457203	295.085295745	197.157961536
9	11476104	295.486669332	149.653386373
9	11484001	295.629180766	281.798439955
9	11489127	295.732760381	34.112638135
9	11499536	295.913227678	306.997703282
9	11517723	296.365918466	127.961007414
9	11519199	296.40496101	119.591846475
9	11571158	297.528063623	22.741843254
9	11641938	299.121447632	590.284223328
9	11658409	299.464013595	147.221961298
9	11677162	299.942404783	35.306391871
9	11677399	299.948158706	113.414303797
9	11713289	300.533393002	132.643660287
9	11750958	301.478400659	175.786469596
9	11755761	301.550633404	493.667302566
9	11758369	301.59915352	124.518636064
9	11763212	301.700453021	114.955891293
9	11763862	301.717974479	246.760874698
9	11764465	301.735442235	322.633538251
9	11798911	302.384607976	246.216491192
9	11809028	302.577032234	5.856588376
9	11812673	302.632927938	281.476022413
9	11827311	302.922541462	172.632435989
9	11841016	303.200846381	167.687411079
9	11841736	303.217452291	30.637742628
9	11844783	303.283536937	476.203969078
9	11847687	303.312663269	182.450027947
9	11876907	303.594851537	65.169811999
9	11896186	303.878708225	23.572284762
9	11899093	303.93497312	111.110239857
9	11900915	303.969176734	66.055136695
9	11939549	304.797649541	0.097761583
9	11941995	304.848201819	486.028890514
9	11944668	304.893347573	97.495775829
9	11976920	305.434999422	687.456591449
9	12024537	306.205811852	777.154781218
9	12041687	306.649616368	342.135659713
9	12053392	306.901167264	115.516353697
9	12054834	306.918913129	453.475646557
9	12102104	307.906235281	129.558344387
9	12122265	308.188991461	17.587794495
9	12241519	310.3435794	330.950367618
9	12244198	310.390154443	65.130451203
9	12253589	310.589399285	1.675896619
9	12268238	311.051114634	92.782574208
9	12270456	311.138054775	7.424199067
9	12311660	311.996974275	148.291395968
9	12350951	312.934182251	297.369950179
9	12358133	313.103372568	181.313355049
9	12377786	313.478607221	345.514342081
9	12403589	314.28498274	749.989189909
9	12429305	314.819910534	149.482557551
9	12435550	315.006041734	17.047775449
9	12449341	315.32666629	258.669576159
9	12467832	315.654882215	260.39920173
9	12484779	316.071649277	487.65729108
9	12485315	316.086189618	77.208579709
9	12498296	316.394645932	73.609292848
9	12498606	316.404012343	14.58585872
9	12529494	317.031223042	68.572121754
9	12548276	317.401822726	202.990479691
9	12554307	317.527374326	154.249230922
9	12566292	317.766171047	90.630268267
9	12616789	318.955473359	388.978011559
9	12629321	319.132936113	85.357826641
9	12629671	319.140452646	176.749828104
9	12632669	319.200000189	76.170063331
9	12642312	319.474387544	175.462002182
9	12668470	320.006074246	76.367805629
9	12681039	320.288170999	66.521641236
9	12682694	320.329280233	8.460984277
9	12738202	321.552908569	29.499580057
9	12820385	323.550671951	248.350479001
9	12822526	323.598392996	24.009437763
9	12825567	323.678275449	630.056025105
9	12847402	324.345366312	411.537389677
9	12860181	324.615879385	88.570682639
9	12868902	324.873132007	271.310847865
9	12889253	325.288943972	183.595688497
9	12904144	325.693569555	97.546479256
9	12925189	326.148317072	0.709219383
9	12939604	326.557995336	360.691447983
9	12940602	326.574148953	14.947302793
9	12956570	326.886381108	31.979291226
9	12994451	327.593827981	8.373212565
9	12997403	327.664888967	239.026650357
9	13021930	328.132622636	2.160915189
9	13024597	328.203383767	146.282329877
9	13025297	328.220475879	380.181135242
9	13037287	328.458287578	188.864546136
9	13086717	329.565997957	10.609755359
9	13096122	329.712748757	424.961555825
9	13096970	329.730607595	391.554650849
9	13108066	329.935588083	180.698167505
9	13168787	331.188411706	324.613890415
9	13174765	331.366512957	7.4302692
9	13194554	331.677772855	52.367209876
9	13211996	332.107315047	92.929044485
9	13221783	332.314753218	429.124131356
9	13231469	332.499960587	104.227423662
9	13242866	332.714167247	421.119256768
9	13262898	333.090710438	245.285239011
9	13289061	333.668877501	146.476143263
9	13296604	333.814474571	109.578524321
9	13300028	333.85857569	49.972165751
9	13311650	334.041946268	1.633270605
9	13346087	334.824375177	352.265471187
9	13374999	335.425761736	140.105272935
9	13393164	335.81313618	433.460838006
9	13467451	337.464349393	460.777110275
9	13468076	337.480084619	103.24397532
9	13501851	338.135797095	85.817897418
9	13510422	338.305040902	185.219255161
9	13512766	338.360943765	40.284222206
9	13532258	338.809915711	62.654269799
9	13551323	339.287504684	478.360096766
9	13564434	339.573965452	254.701927903
9	13572597	339.730420712	67.531416578
9	13575933	339.766828748	253.349673202
9	13576343	339.771491927	186.396920325
9	13583078	339.862921886	168.369081102
9	13608849	340.296526732	50.555810258
9	13610681	340.353266393	81.936441083
9	13636995	341.116600072	502.737228311
9	13647293	341.315191109	6.018013348
9	13647439	341.319142589	577.16961926
9	13652483	341.381127351	80.064849603
9	13669924	341.602834484	114.195078544
9	13687549	341.856573555	40.621094103
9	13709910	342.251859189	185.381196326
9	13733919	342.838945172	28.304947197
9	13745415	343.150638274	18.78098608
9	13763674	343.430212941	217.935691827
9	13782279	343.783301463	459.826895763
9	13808823	344.334656241	85.722001368
9	13911900	346.415230857	746.303548267
9	13931420	346.863288926	147.063774597
9	13932100	346.87416805	0.070485831
9	13942504	347.05083328	2.762682073
9	13952437	347.240313173	1.762769599
9	13953920	347.266512576	191.299332479
9	13956053	347.320304928	58.586823633
9	13977385	347.665773803	34.292864649
9	14018780	348.915319863	1209.069904328
9	14081511	350.257007844	106.759437179
9	14094560	350.648694875	130.55335273
9	14096978	350.711146533	198.900323206
9	14108296	350.979781076	40.589937317
9	14108338	350.981048029	36.550729473
9	14138257	351.598432265	95.691554053
9	14233785	353.761974336	116.832805135
9	14234535	353.778560751	30.671700331
9	14236662	353.836247554	182.298512778
9	14271919	354.677512507	252.391926573
9	14287749	354.963576155	97.874554412
9	14311683	355.647572393	245.949255238
9	14334504	356.369142628	341.426557844
9	14364679	357.168577239	828.62141558
9	14367699	357.24731646	149.226049556
9	14368519	357.271178138	111.311566355
9	14379475	357.557685478	357.096403584
9	14409154	358.14054531	727.291297538
9	14420334	358.507533601	752.368701826
9	14424644	358.650662581	65.961849005
9	14447831	359.247063444	24.376127096
9	14456259	359.407576259	255.313202474
9	14464856	359.54014357	438.560100605
9	14482008	359.846033934	14.28697876
9	14484020	359.907914262	169.403201447
9	14492775	360.159173024	191.668905492
9	14493068	360.169923988	173.971345191
9	14533765	361.083734257	286.771068882
9	14597045	362.705947056	117.12515134
9	14599887	362.787154186	234.937679491
9	14619632	363.229615986	6.079097143
9	14622473	363.330422541	8.135217902
9	14633073	363.651107545	58.416491675
9	14640493	363.912594361	169.440894375
9	14640561	363.914786488	139.241939902
9	14647702	364.027513586	261.440582777
9	14709693	365.277679175	158.83321766
9	14752709	366.334281661	89.559604828
9	14766280	366.64605915	92.296329024
9	14778329	366.912283154	55.359410261
9	14784741	367.031875198	375.322291856
9	14813216	367.445785963	12.449429273
9	14825404	367.733998199	281.908986562
9	14828562	367.858188337	130.642395296
9	14882744	369.053905043	408.755010181
9	14906476	369.442929278	82.737692432
9	14984729	370.94274689	39.824695144
9	14984750	370.943218044	5.969136021
9	15044702	372.380907697	61.235707471
9	15052119	372.555395198	237.726639951
9	15070055	372.79011237	258.136298519
9	15133509	374.444905512	214.210894839
9	15178612	375.72132467	360.490301702
9	15221708	376.699574644	20.032103296
9	15239314	377.167412833	130.521187061
9	15257621	377.76814093	121.269606518
9	15262935	377.963891044	19.544221092
9	15266175	378.011566753	138.129159048
9	15289147	378.590166713	203.41861902
9	15317779	379.122054245	252.738618449
9	15327784	379.36533815	35.901149767
9	15329202	379.41891205	445.376577192
9	15330744	379.459885648	333.423085637
9	15332061	379.493701941	311.726987345
9	15341068	379.702138967	86.601557745
9	15348550	379.873419941	104.139522614
9	15396028	380.979478459	12.724933679
9	15422038	381.623385247	293.795273097
9	15435617	382.016995055	183.163620894
9	15437312	382.081658425	127.596886075
9	15453337	382.337066557	146.296223487
9	15475801	382.953249419	178.282127709
9	15484751	383.209446875	437.872912737
9	15514442	384.019740246	125.363256763
9	15538140	384.707670403	210.696192766
9	15539638	384.734162441	557.312392082
9	15541921	384.77736563	229.142738999
9	15543540	384.803077938	257.493938213
9	15546653	384.866808936	109.523258298
9	15575670	385.575293969	203.619832569
9	15578958	385.643957251	69.049270558
9	15597748	386.107170818	123.932144197
9	15603055	386.268820939	133.240730491
9	15613332	386.506600183	556.287260019
9	15613363	386.507116716	593.517485162
9	15638458	387.06861443	61.860959149
9	15639771	387.107969174	380.703904444
9	15639808	387.108782917	46.257453762
9	15645156	387.29340458	442.378622617
9	15655554	387.504670899	347.073897497
9	15658490	387.575268305	6.318170295
9	15661019	387.637496207	119.911965839
9	15720095	388.92723315	141.907655002
9	15724982	389.096593365	67.498171326
9	15728178	389.207013344	10.427662678
9	15729346	389.230171527	307.495656436
9	15730011	389.241920783	417.489232064
9	15750781	389.637229555	381.897800273
9	15767807	389.985708707	175.420190881
9	15809722	390.94967767	23.109198447
9	15883203	392.520897963	74.631787285
9	15892601	392.694613113	86.203015138
9	15900805	392.900631935	194.551412413
9	15907556	393.136596588	302.700827591
9	15921430	393.385977365	210.823320453
9	15943983	393.790855607	540.607369282
9	15972665	394.244144497	48.069127721
9	15973229	394.25066098	584.46008088
9	15987910	394.520017692	115.037082302
9	16011115	395.025173153	10.882220365
9	16011844	395.044309773	330.448707865
9	16015088	395.153679131	411.118009899
9	16029238	395.473386369	47.746049081
9	16052514	395.853648155	122.37901329
9	16065363	396.016267646	2.136963997
9	16108162	396.907162815	101.838822401
9	16128907	397.367648345	129.485728099
9	16132922	397.490252128	65.671247195
9	16135007	397.55146567	4.008661272
9	16152331	397.970412972	67.640072446
9	16155793	398.063058276	803.025104761
9	16191112	398.674909762	50.440656202
9	16195739	398.724493013	666.520164722
9	16254382	400.300070189	113.770100526
9	16285567	400.764293843	211.75247852
9	16298524	401.050674957	53.272119497
9	16314320	401.521494412	329.515148898
9	16334783	401.92981388	107.96521163
9	16353421	402.299866434	3.739026143
9	16353979	402.311769752	365.004250638
9	16385087	403.038086196	34.337103228
9	16408023	403.606236824	9.477998869
9	16408263	403.612863573	372.503949973
9	16425446	403.90691524	350.706525236
9	16425477	403.90738499	262.017389958
9	16439375	404.21408704	325.496632362
9	16479897	404.949780199	121.418451222
9	16495589	405.323463099	256.75945096
9	16504451	405.509055314	96.912777534
9	16532172	406.012865218	12.458221496
9	16604355	407.278596148	149.182206798
9	16614200	407.494655641	133.269545906
9	16658457	408.244395486	140.593113231
9	16668779	408.390566006	460.731645993
9	16685361	408.720150614	106.002724108
9	16693775	408.904142746	19.273035586
9	16722931	409.46958424	107.076278663
9	16739595	409.725800222	203.693338324
9	16748876	409.911232125	31.534167739
9	16765508	410.185692847	392.335999739
9	16771720	410.299086035	349.741907449
9	16794626	410.714033511	61.01634562
9	16804652	410.934305055	116.130551021
9	16822473	411.389346372	423.218574489
9	16883223	412.504379352	125.364479902
9	16901265	412.722330253	171.332342631
9	16924977	413.106553937	940.239918565
9	16926256	413.125341766	182.234854145
9	16946618	413.503856242	58.2244328
9	16969139	414.00458993	243.141150887
9	16969165	414.004666604	104.929519452
9	16974843	414.11388097	318.47543892
9	16978528	414.187149636	225.79806267
9	17018024	414.812148442	145.984284391
9	17026155	414.940534099	57.736981525
9	17052315	415.484020427	683.247061567
9	17065403	415.819505678	465.060741779
9	17066577	415.845630968	258.075956718
9	17078413	416.073297913	148.749324866
9	17088284	416.281274241	212.955043023