version 2
run PastryDHT-9-20211207-00:34:19-4724
attr Lifetime 1000s
attr configname PastryDHT
attr datetime 20211207-00:34:19
attr experiment PastryDHT
attr inifile configs.ini
attr iterationvars $Lifetime=1000s
attr iterationvars2 "$Lifetime=1000s, $repetition=0"
attr measurement $Lifetime=1000s
attr network oversim.underlay.simpleunderlay.SimpleUnderlayNetwork
attr processid 4724
attr repetition 0
attr replication #0
attr resultdir results
attr runnumber 9
attr seedset 9

vector 55  SimpleUnderlayNetwork.globalObserver.globalStatistics  "GlobalNodeList: Number of nodes"  ETV
vector 56  SimpleUnderlayNetwork.globalObserver.globalStatistics  "GlobalDhtTestMap: Number of stored DHT entries"  ETV
vector 57  SimpleUnderlayNetwork.globalObserver.globalStatistics  "LifetimeChurn: Session Time"  ETV
vector 58  SimpleUnderlayNetwork.globalObserver.globalStatistics  "LifetimeChurn: Time between creates"  ETV
vector 59  SimpleUnderlayNetwork.globalObserver.globalStatistics  "LifetimeChurn: Time between deletes"  ETV
55	2584311	150	512
55	3277704	200	525
55	3801513	250	515
55	4442566	300	516
55	5051658	350	515
55	5575789	400	513
55	6293678	450	516
55	6882055	500	503
55	7526795	550	492
55	8183863	600	497
55	8730421	650	493
55	9303324	700	500
55	9918103	750	500
55	10525104	800	504
55	11157141	850	500
55	11768291	900	496
55	12508386	950	510
55	13280820	1000	512
55	13932132	1050	521
55	14523861	1100	514
56	2584312	150	774
56	2723806	160	877
56	2844350	170	939
56	2982592	180	992
56	3113409	190	1071
56	3277705	200	1163
56	3390360	210	1252
56	3491616	220	1363
56	3600187	230	1428
56	3690474	240	1489
56	3801514	250	1561
56	3951844	260	1639
56	4109158	270	1743
56	4187667	280	1844
56	4301190	290	1920
56	4442567	300	1990
56	4577301	310	2057
56	4735321	320	2140
56	4857266	330	2236
56	4948742	340	2337
56	5051659	350	2414
56	5146485	360	2470
56	5252716	370	2467
56	5344641	380	2456
56	5492139	390	2449
56	5575790	400	2454
56	5713298	410	2448
56	5824673	420	2469
56	5919994	430	2469
56	6113561	440	2474
56	6293679	450	2441
56	6418968	460	2429
56	6544985	470	2447
56	6656153	480	2466
56	6774240	490	2458
56	6882056	500	2456
56	6992133	510	2454
56	7119482	520	2423
56	7294081	530	2444
56	7400502	540	2459
56	7526796	550	2452
56	7680119	560	2460
56	7812880	570	2445
56	7939623	580	2414
56	8066435	590	2421
56	8183864	600	2433
56	8302127	610	2433
56	8425981	620	2429
56	8497815	630	2425
56	8609214	640	2402
56	8730422	650	2408
56	8815286	660	2399
56	8931195	670	2416
56	9047032	680	2408
56	9154968	690	2388
56	9303325	700	2385
56	9427082	710	2389
56	9563049	720	2402
56	9641843	730	2397
56	9751796	740	2379
56	9918104	750	2391
56	10040532	760	2381
56	10186019	770	2392
56	10284571	780	2386
56	10406270	790	2386
56	10525105	800	2375
56	10629872	810	2375
56	10758418	820	2391
56	10896412	830	2384
56	11008567	840	2370
56	11157142	850	2382
56	11292309	860	2385
56	11438704	870	2387
56	11539307	880	2396
56	11631676	890	2386
56	11768292	900	2366
56	11946623	910	2383
56	12099413	920	2378
56	12248847	930	2377
56	12376737	940	2385
56	12508387	950	2382
56	12666084	960	2400
56	12804086	970	2379
56	12971131	980	2380
56	13141838	990	2400
56	13280821	1000	2398
56	13399088	1010	2398
56	13515583	1020	2400
56	13645267	1030	2393
56	13811883	1040	2392
56	13932133	1050	2409
56	14020104	1060	2426
56	14124114	1070	2415
56	14279798	1080	2418
56	14432950	1090	2418
56	14523862	1100	2425
56	14638136	1110	2438
56	14785927	1120	2425
56	14929045	1130	2421
56	15082930	1140	2408
57	2587915	150.22123188	595.976850781
57	2611413	152.044023017	631.81030642
57	2647931	154.624835938	418.084683971
57	2650418	154.84740435	2074.419760629
57	2659647	156.122826277	950.283169781
57	2666439	156.573806329	2971.057628472
57	2687666	157.908986566	1921.915396945
57	2729799	160.506631778	2930.184632931
57	2747010	162.281874854	250.94806467
57	2807011	165.759412096	1550.812462215
57	2807584	165.830015361	727.55072791
57	2835338	168.435752958	242.323791707
57	2848342	171.005550053	680.084610187
57	2849282	171.213445822	150.349573021
57	2849389	171.237374041	1000.138194063
57	2869524	172.903824144	1776.363816718
57	2882933	173.493726454	806.491726192
57	2921894	175.960055795	869.720846979
57	2926599	176.489086759	5.857084586
57	2931037	177.232145565	2521.74750577
57	2959350	178.470468478	2032.611548745
57	3016415	181.951068402	254.884217574
57	3028257	183.010700772	1846.274120412
57	3032952	183.618606961	640.237895036
57	3047616	184.371271856	127.502778464
57	3089578	187.310684933	352.782922145
57	3091189	187.374505637	177.460649643
57	3095025	188.048154125	2024.380919288
57	3097751	188.423346097	679.809766456
57	3104968	189.454403009	1370.238012991
57	3131268	190.98754306	61.006678927
57	3146631	191.913498091	350.004714596
57	3181654	194.000652043	426.378042235
57	3202672	195.517390299	850.408945068
57	3216626	196.23216369	1723.074651068
57	3218011	196.274764614	2848.09239943
57	3224974	196.961754218	21.20871561
57	3272023	199.325783986	19.190661965
57	3277341	199.936796832	689.891714067
57	3301206	202.160740173	2836.095788637
57	3312903	203.636572231	961.505083697
57	3313398	203.669814771	943.517415175
57	3375784	208.486504343	1157.365679979
57	3413410	212.002007513	282.891475281
57	3432708	214.037582796	17.468166653
57	3467882	217.649046102	149.508157427
57	3495386	220.669055424	961.478277753
57	3503693	221.627853074	319.149977781
57	3518379	223.108660565	1712.819028438
57	3565554	226.66752929	161.351533686
57	3579868	228.073430214	403.049016726
57	3595494	229.473009496	243.677322892
57	3622843	231.650262171	224.441476705
57	3661980	236.302891301	187.624183816
57	3689469	239.76375068	379.522834688
57	3705316	241.951372153	1030.449983274
57	3708112	242.354801669	417.331991652
57	3738123	244.841495857	42.724249358
57	3741233	245.124857364	564.34871609
57	3746042	245.47650868	213.894543075
57	3798516	249.918616353	1282.506291581
57	3814941	251.150550613	140.61016436
57	3840676	252.283825359	2467.716856827
57	3863044	253.735926601	10.039895226
57	3885851	255.232033139	3943.026194928
57	3898904	256.263092797	2059.054109361
57	3899708	256.32462396	2127.733098088
57	3915125	257.588952555	235.345119074
57	3955697	260.431414622	20.337294643
57	3969607	261.318130618	44.52683166
57	3975829	261.955164519	797.218222532
57	3993732	262.773824874	256.123105909
57	4042265	265.524481513	363.390260989
57	4046772	265.751557322	536.920864516
57	4093639	268.875882539	2787.308975526
57	4150229	274.870605243	1212.340566077
57	4162388	276.5368572	427.812291722
57	4181012	279.352959377	571.488281194
57	4181589	279.452023585	83.635437768
57	4216187	282.435355584	98.634891072
57	4236922	284.10987777	232.149508615
57	4253839	284.912969251	560.224742148
57	4276547	287.384688965	228.600442839
57	4306912	290.877895221	2326.009098961
57	4313971	291.569431358	1100.548841569
57	4319472	292.513336826	608.066489291
57	4363543	295.135224503	1346.52295184
57	4366354	295.287705048	322.295830954
57	4395190	296.615210905	13.411544927
57	4403804	297.468837936	2568.055511941
57	4459715	301.151156367	162.536496751
57	4483757	302.275731127	694.373266954
57	4532595	305.517741613	883.08418267
57	4539101	306.147426186	118.710108108
57	4557952	308.121037429	565.891968352
57	4571421	309.370986784	1964.890983576
57	4575153	309.754100993	279.501414992
57	4579000	310.107262265	795.458450146
57	4628742	313.409010641	6.114299775
57	4641011	314.239408941	1278.519145812
57	4662803	315.292103687	206.188081595
57	4667674	315.605993604	733.539971189
57	4715301	318.616654862	403.529846812
57	4717637	318.810831375	1791.221477161
57	4766304	321.320711283	206.713999103
57	4768998	321.662685148	1843.286889537
57	4771093	321.912484843	162.122693713
57	4858824	330.194349287	1489.98439419
57	4882044	332.580024778	416.111774843
57	4906645	334.718108665	131.72547723
57	4949027	340.16095662	1296.136501381
57	4958949	341.869891772	181.638655788
57	4967301	342.485275903	384.715367733
57	4972067	342.866586664	454.726776821
57	4993380	345.442785754	438.274895636
57	5063871	352.090560382	1097.428163537
57	5069406	352.750886102	281.706631711
57	5109433	357.408708687	7.890122617
57	5168982	362.108101918	2759.746266061
57	5191565	365.45796454	383.298975898
57	5192275	365.587597501	845.084056514
57	5194452	365.815168557	296.481410579
57	5201664	366.505417879	222.554288519
57	5246971	369.743544233	1365.579424288
57	5297600	374.706471253	551.323940481
57	5309627	376.106884177	219.497105306
57	5334823	378.845833803	982.333340779
57	5334892	378.85678679	66.308721486
57	5338308	379.18640804	56.856260519
57	5358189	381.511939094	1971.346440134
57	5386553	383.75111214	343.263905285
57	5388444	383.834890524	4978.777123873
57	5400551	384.856013634	260.377314185
57	5452751	387.488594344	2719.668707432
57	5495404	390.694085615	416.53511183
57	5504783	391.960780497	435.389177703
57	5524756	395.215474167	1710.836162656
57	5594686	400.738551044	109.07954392
57	5629684	405.021086739	1186.095211035
57	5635678	405.703609069	1075.229981279
57	5643216	406.395002347	1173.217734401
57	5647804	406.871895548	1292.253796597
57	5650557	407.350794687	414.642929704
57	5697239	409.427944383	124.447179412
57	5718142	410.440086474	144.942242913
57	5735824	411.734182237	2297.644997349
57	5788985	416.66004537	25.419162174
57	5790912	416.919613527	968.85359001
57	5850370	423.073910484	923.416306718
57	5879961	426.264905245	1022.303811485
57	5883552	426.662814774	1295.378032522
57	5907367	428.672165017	1123.363677123
57	5913392	429.247131989	298.190345763
57	5951736	431.953353837	809.234581044
57	5957458	432.326812917	35.090700897
57	5990333	433.791557163	2295.600003551
57	6017402	435.302661036	535.026666345
57	6037590	436.586438933	286.083613535
57	6038762	436.696679133	12.57804889
57	6052058	437.216938127	768.026489211
57	6053437	437.241782231	1237.474993785
57	6105265	439.356884304	1926.923125362
57	6132872	441.250335653	2245.881971322
57	6138723	441.692895977	335.228725237
57	6141894	442.069570095	877.80979775
57	6156287	442.945279224	545.246234107
57	6177005	444.078337231	775.423439456
57	6178790	444.208847378	685.151903685
57	6202132	444.849185095	127.288982413
57	6300732	450.64695944	39.64958164
57	6314639	451.880912885	1179.846833003
57	6335406	453.236486702	419.977119653
57	6381921	456.666566769	1220.099943748
57	6405702	458.647169317	2006.635830501
57	6470292	463.834984941	3039.319766575
57	6475134	464.519023915	179.151617926
57	6503301	466.612284843	1401.832284744
57	6505561	466.768012901	2125.33352516
57	6530029	468.61014013	3322.575372352
57	6543123	469.77485732	1630.876256005
57	6653777	479.652066412	340.609201587
57	6664755	481.209527881	201.771631573
57	6665074	481.245490368	1535.326948228
57	6667608	481.494988039	364.703306106
57	6677689	482.897769897	917.349775143
57	6699218	484.518817804	242.667000487
57	6765627	488.972318413	2287.766475612
57	6818834	495.448174531	2395.770022713
57	6824989	495.935180284	49.208886173
57	6835825	497.172705648	1848.158594898
57	6903660	501.249607258	29.13056181
57	6905771	501.394240599	353.359235992
57	6993023	510.241527198	69.711809439
57	6994357	510.593732695	1069.501130249
57	6996204	510.947223677	2518.559329283
57	7004344	511.765695934	458.332139295
57	7005494	512.058601212	976.897433072
57	7049407	515.54278964	364.879925286
57	7079001	517.591926625	1660.694234293
57	7079850	517.625681283	1781.043193735
57	7092943	518.882855401	1019.030343919
57	7112055	519.77077803	332.439837021
57	7152740	521.551913831	1625.831039248
57	7182541	523.31028564	557.198254746
57	7192629	523.972144831	288.329513933
57	7265729	527.779885789	1316.677566685
57	7285597	529.342327965	160.109828659
57	7328023	533.139770206	1067.523488083
57	7405231	540.576544147	164.869795219
57	7428470	542.414947837	37.519380163
57	7486956	546.976985179	342.459055089
57	7488896	547.177919952	343.428001036
57	7528624	550.232146972	416.799765037
57	7553325	552.038266537	53.753869406
57	7575158	553.992112807	87.804040668
57	7579959	554.178141975	1417.381965432
57	7586518	554.586633129	408.992739458
57	7587529	554.651696528	1624.262902369
57	7595574	555.120979529	207.33370701
57	7673647	559.420629362	340.144876423
57	7694469	560.830724167	755.968722983
57	7727125	563.499032592	335.129877748
57	7760145	565.999475522	819.728219414
57	7807891	569.711467305	805.365719279
57	7867661	575.374260459	1616.420469833
57	7868239	575.443886924	1113.630157434
57	7905887	577.755486954	1403.722622571
57	7946124	580.331878664	38.214210121
57	7992391	583.641022185	421.61663836
57	8000884	584.303157967	780.842178059
57	8016542	586.130827596	24.06935489
57	8034538	587.268262026	1280.142027366
57	8056155	588.801394383	1287.499514987
57	8102779	593.589276301	417.441380673
57	8143536	596.859182744	763.395218423
57	8163314	598.534548876	194.564298457
57	8211818	602.339016425	152.71140457
57	8277622	607.710029249	1486.09933404
57	8309035	611.045207607	124.075989942
57	8336509	613.687405694	469.519216709
57	8343358	614.498543175	554.198357859
57	8344476	614.748601804	1832.528227507
57	8387641	617.262354927	1985.860856539
57	8391183	617.62339774	955.886805448
57	8434268	621.116306675	110.482632095
57	8469012	626.523880366	885.434659208
57	8478918	628.244531397	741.331959629
57	8479681	628.340575222	120.230553752
57	8522243	633.392979908	418.42853609
57	8563706	636.561145525	1284.698658174
57	8573423	637.355601499	1004.220963867
57	8580840	638.316077237	570.177786362
57	8601867	639.348537606	1328.321045255
57	8606489	639.71262877	300.674674972
57	8661698	642.450297597	1437.566145912
57	8736926	650.847557727	1091.482758224
57	8745522	652.242891083	1314.238181435
57	8758286	652.929434167	707.515116679
57	8785130	655.228674155	583.569652826
57	8796291	657.288367334	1234.085279195
57	8814445	659.810503804	2401.866158588
57	8819205	660.503194929	525.091842184
57	8835357	661.504842791	2573.288490859
57	8841951	662.542091407	1129.575196334
57	8903779	666.65809751	1106.57164186
57	8933350	670.26687866	803.583772682
57	8934339	670.411816053	1542.012137323
57	8993865	674.588132066	1630.251908607
57	9076067	684.459343183	1983.258655312
57	9078315	684.827280969	44.705555293
57	9101272	686.45984865	355.89727015
57	9121584	687.321568031	1053.933220101
57	9123372	687.419906094	393.704095486
57	9138640	688.592381604	1057.611700382
57	9202382	692.818846238	1171.627515507
57	9219135	694.198332235	855.382200957
57	9232852	695.125468345	1073.99960274
57	9253164	696.501130168	22.532308961
57	9273606	697.590658218	2402.142588761
57	9290087	699.436269002	296.579683648
57	9308795	700.605171763	580.121214984
57	9364924	703.926373343	1085.802375857
57	9382060	705.838097921	2380.422146736
57	9390589	706.32814476	95.946906899
57	9391739	706.523830666	481.049987751
57	9416053	708.617321717	883.864133364
57	9425358	709.834990805	1689.928856034
57	9521835	715.336497433	666.247589162
57	9528237	716.256243644	196.598451939
57	9607158	725.267322328	2909.874190074
57	9629173	727.736680915	333.381652782
57	9641818	729.996069138	2056.837157457
57	9670385	734.186494866	388.622790899
57	9687311	735.843369957	1202.327219688
57	9687350	735.848136436	216.531964324
57	9703041	736.87523424	2159.254675976
57	9706235	737.216160682	337.477333751
57	9727165	738.22081178	1033.001394962
57	9754025	740.131976086	98.456166967
57	9773512	741.630978858	875.036031786
57	9776833	742.099939523	4120.47543807
57	9779230	742.215936652	524.421247158
57	9787599	743.232881741	469.33055876
57	9789286	743.363039725	30.329462293
57	9837927	745.567174465	768.125863077
57	9840862	745.989291756	1007.262351073
57	9848130	746.239582482	583.826854783
57	9870505	747.113858905	1810.46982085
57	9903350	748.620187082	174.85656723
57	9926590	750.465388776	8.855978145
57	9936155	751.642393804	314.613232491
57	9963858	753.809433196	1354.120755763
57	9973385	754.759287916	211.940813177
57	9983453	755.945027482	455.353662511
57	9986828	756.427406155	1346.724958872
57	9998263	756.917991867	161.8312557
57	10009268	757.935797128	19.532506586
57	10045333	760.110209321	2179.078933288
57	10057583	761.5109745	362.91451954
57	10138284	765.699264828	1006.983800788
57	10143101	766.069359004	453.665424241
57	10144685	766.22893304	593.238476381
57	10254688	776.589434255	62.728457493
57	10272956	778.598687746	492.097588736
57	10273933	778.691946461	173.193328733
57	10280460	779.594361116	39.709709094
57	10311041	781.590944343	1889.95375961
57	10315122	781.90286386	868.161445382
57	10378100	787.072534572	839.517909917
57	10397417	788.793347854	701.030579293
57	10406128	789.975927458	1760.339297484
57	10419553	790.996888043	288.201142256
57	10422146	791.322832342	22.86352034
57	10423422	791.578937411	644.590551239
57	10480943	794.803452645	2333.482321341
57	10501355	796.473026599	1247.448721774
57	10530580	800.746290615	824.038227168
57	10565630	803.123940469	678.727220161
57	10616241	808.637459009	1218.575596417
57	10622565	809.427108436	2276.046234704
57	10624302	809.668373417	54.656649299
57	10723226	817.121701804	214.697610485
57	10724998	817.339222424	981.223568903
57	10768309	820.911753927	2451.773652449
57	10853924	825.884655987	592.921223304
57	10873370	828.243501314	142.718310839
57	10888256	829.40121603	1441.885241706
57	10924121	832.195373452	1051.224160367
57	10969468	836.611256189	3356.936899133
57	10976082	837.709496511	333.867442127
57	11013034	840.508456974	969.126359358
57	11017403	841.019631578	2781.047167572
57	11018541	841.119623154	533.988825096
57	11038143	843.126826596	44.135698856
57	11039957	843.38436038	972.112175763
57	11041689	843.600813179	39.499834089
57	11106129	847.468780874	77.305319349
57	11117647	847.96531835	1008.170330241
57	11122986	848.218386082	474.869174131
57	11185081	850.906006127	2347.172465135
57	11189729	851.301246786	625.3144101
57	11246127	855.150767423	335.679236915
57	11272605	857.889499798	288.654719427
57	11283881	859.196434461	1672.645797441
57	11287926	859.491277185	63.88714603
57	11318091	861.774042967	532.823373904
57	11325766	862.219625818	717.572045911
57	11375976	864.781310578	3512.177197988
57	11382631	865.477787983	240.099551596
57	11496588	876.657811417	975.872551374
57	11497045	876.723516122	694.184817186
57	11501103	877.259759602	221.406686358
57	11598435	886.328027257	85.027433081
57	11601205	886.761413447	651.275308456
57	11605300	887.343298775	175.563119033
57	11631233	889.917806808	275.217046843
57	11658356	892.456232137	560.641661352
57	11681170	893.398113464	301.989643162
57	11691647	894.29985788	2564.197758122
57	11747034	898.324639543	96.264262826
57	11747916	898.425278109	213.447608815
57	11749046	898.540737338	96.096951328
57	11756038	899.146081162	262.406191928
57	11766328	899.816798587	361.784676858
57	11825359	903.978520457	89.544623254
57	11832766	904.443367766	3378.34651631
57	11840544	904.823286132	349.783720569
57	11872820	906.43587214	47.230438996
57	11881020	906.787864995	2512.428594133
57	11885522	907.011860078	630.109894719
57	11909426	908.638011779	823.725286773
57	11975813	911.728140471	16.602362692
57	11988738	913.090711436	318.439701919
57	12003969	913.679519967	1860.978104054
57	12036791	915.99783998	2211.318918045
57	12111723	921.521111376	148.919181635
57	12121907	922.102929789	69.326141326
57	12135159	923.270926197	261.989283264
57	12155827	924.550355871	231.661028042
57	12157932	924.700964106	47.641037019
57	12175140	925.67111488	1599.861039957
57	12198196	926.802946942	1100.337011552
57	12224603	928.508022184	2318.029058947
57	12241818	929.551589595	663.790715252
57	12249243	930.088035631	1083.19570531
57	12261611	931.249415399	219.744884474
57	12316281	934.953529063	303.057472295
57	12377709	940.137343276	1331.652255004
57	12389515	941.35002492	623.1293592
57	12402233	942.932234469	130.892578443
57	12405723	943.52948203	1439.989377043
57	12416774	944.011967353	1225.579933998
57	12420378	944.437209463	1698.527884294
57	12444065	945.585595164	393.864120811
57	12448432	945.879682253	1780.796752637
57	12490399	948.784458867	989.69911841
57	12497696	949.183318286	193.224043872
57	12521755	950.951624582	451.884004387
57	12576877	953.475571441	486.948742088
57	12617363	956.472345505	2979.920698094
57	12621277	956.904147118	421.572158838
57	12626422	957.311081065	356.412543042
57	12632085	957.730999622	1326.335283551
57	12645901	958.889035684	1161.290615617
57	12656561	959.19190203	1193.161129631
57	12665510	959.970144671	770.359614424
57	12747322	965.668792879	45.607175266
57	12771296	968.060661046	906.085272843
57	12772020	968.101889955	496.036437676
57	12812038	970.522050263	451.43859897
57	12839391	971.725944254	262.892320154
57	12842211	971.930460334	1019.16913927
57	12851219	972.668097922	66.566733154
57	12855608	973.001959081	84.968061561
57	12886111	975.000299904	953.278672813
57	12889311	975.122828987	4681.23397079
57	12966607	979.644216421	371.332264738
57	12982278	981.108951322	422.716776285
57	12994310	982.368614764	6.26002627
57	13015314	983.230433987	421.867009713
57	13031316	984.563467752	1500.28495985
57	13033404	984.730136751	686.58185813
57	13080354	986.8142403	1488.986130546
57	13080873	986.836875873	151.68318462
57	13099583	987.768079122	1515.216106412
57	13157041	990.976567049	1763.034900498
57	13164124	991.470839231	397.243185571
57	13182663	992.318642668	2342.568238779
57	13194332	992.988323611	174.436767174
57	13269418	998.565415837	330.667455081
57	13276469	999.492343866	811.140992361
57	13294810	1000.733881333	711.256678521
57	13301188	1001.384701462	1503.625910988
57	13303991	1001.717843716	3145.439399478
57	13307094	1002.001180253	989.45221174
57	13339465	1004.13138616	2038.504507275
57	13463518	1016.797678172	308.345204145
57	13465835	1017.00775665	2062.944638431
57	13468736	1017.373903849	1190.780400113
57	13539168	1021.740094352	62.415874431
57	13554771	1023.193092478	1811.526103361
57	13559578	1023.562133216	23.366988828
57	13573963	1024.98419575	502.352066259
57	13575848	1025.035802906	1434.561647972
57	13611523	1027.785126911	44.886167954
57	13628254	1028.960893588	1830.831619303
57	13629032	1029.082383753	336.629918238
57	13649345	1030.362469476	428.192881626
57	13681997	1031.634884004	1981.23264525
57	13704668	1032.86537087	4239.756377664
57	13706112	1032.981258098	334.346105702
57	13716227	1033.990206093	1956.842778177
57	13794456	1038.388677445	828.405097825
57	13815278	1040.32662303	1301.514113908
57	13852335	1043.557108743	448.881183814
57	13863458	1044.699492408	1729.481252071
57	13864624	1044.836450867	628.274436484
57	13868552	1045.098698702	745.596022325
57	13965793	1053.180665964	952.572839035
57	14012077	1058.750987306	485.935859794
57	14038040	1061.706704441	100.356526896
57	14078661	1065.783440889	331.015742126
57	14091984	1067.404677483	1614.144672585
57	14102758	1067.970687106	477.414210367
57	14114450	1069.129417622	31.81510514
57	14125264	1070.137222813	6658.393065161
57	14127922	1070.452625485	1742.229356787
57	14143064	1071.660907518	265.142861391
57	14143531	1071.74181657	695.495586364
57	14153912	1072.302788903	2514.950469305
57	14176486	1074.141521245	137.125571789
57	14204712	1075.597666153	441.601609571
57	14240056	1077.395681645	909.937022956
57	14283785	1080.46703917	880.172491006
57	14300181	1081.681528818	785.639867738
57	14327979	1083.619313869	579.898747196
57	14421066	1088.630349602	2542.201017915
57	14441152	1090.815325335	61.951596792
57	14484582	1094.110819293	211.454422583
57	14523789	1099.987486244	158.731103435
57	14555422	1102.281853352	302.306456959
57	14566446	1103.43714252	1063.545992587
57	14577908	1104.755024921	966.106483542
57	14594623	1107.303499775	602.467970005
57	14596123	1107.527211171	916.626649052
57	14629499	1109.491014564	728.266930793
57	14651471	1111.148447575	606.591414616
57	14652383	1111.227267243	378.963562467
57	14716727	1114.472767573	968.608188304
57	14722331	1114.837946122	131.788262189
57	14780339	1119.613589042	169.475217557
57	14820322	1122.442348904	634.084472049
57	14821936	1122.65418432	698.546845495
57	14834601	1123.695183398	2024.679064965
57	14847920	1124.745871667	101.152876331
57	14854032	1125.247410939	482.724167003
57	14896841	1128.140016545	1190.428527579
57	14903887	1128.601911247	60.864741833
57	14920771	1129.221060216	109.194484838
57	14943461	1130.654172207	1238.502666066
57	14960410	1131.423242017	666.864145022
57	15017693	1134.880219279	119.177243536
57	15030149	1135.865147399	1426.300396069
57	15040579	1136.781031446	593.490407742
57	15085652	1140.234870336	55.083156323
57	15091525	1140.790882011	1359.829639513
57	15095587	1141.638984529	280.46294437
57	15134711	1145.500102942	396.51224557
58	2587915	150.22123188	0.981113835
58	2611413	152.044023017	1.822791137
58	2647931	154.624835938	2.580812921
58	2650418	154.84740435	0.222568412
58	2659647	156.122826277	1.275421927
58	2666439	156.573806329	0.450980052
58	2687666	157.908986566	1.335180237
58	2729799	160.506631778	2.597645212
58	2747010	162.281874854	1.775243076
58	2807011	165.759412096	3.477537242
58	2807584	165.830015361	0.070603265
58	2835338	168.435752958	2.605737597
58	2848342	171.005550053	2.569797095
58	2849282	171.213445822	0.207895769
58	2849389	171.237374041	0.023928219
58	2869524	172.903824144	1.666450103
58	2882933	173.493726454	0.58990231
58	2921894	175.960055795	2.466329341
58	2926599	176.489086759	0.529030964
58	2931037	177.232145565	0.743058806
58	2959350	178.470468478	1.238322913
58	3016415	181.951068402	3.480599924
58	3028257	183.010700772	1.05963237
58	3032952	183.618606961	0.607906189
58	3047616	184.371271856	0.752664895
58	3089578	187.310684933	2.939413077
58	3091189	187.374505637	0.063820704
58	3095025	188.048154125	0.673648488
58	3097751	188.423346097	0.375191972
58	3104968	189.454403009	1.031056912
58	3131268	190.98754306	1.533140051
58	3146631	191.913498091	0.925955031
58	3181654	194.000652043	2.087153952
58	3202672	195.517390299	1.516738256
58	3216626	196.23216369	0.714773391
58	3218011	196.274764614	0.042600924
58	3224974	196.961754218	0.686989604
58	3272023	199.325783986	2.364029768
58	3277341	199.936796832	0.611012846
58	3301206	202.160740173	2.223943341
58	3312903	203.636572231	1.475832058
58	3313398	203.669814771	0.03324254
58	3375784	208.486504343	4.816689572
58	3413410	212.002007513	3.51550317
58	3432708	214.037582796	2.035575283
58	3467882	217.649046102	3.611463306
58	3495386	220.669055424	3.020009322
58	3503693	221.627853074	0.95879765
58	3518379	223.108660565	1.480807491
58	3565554	226.66752929	3.558868725
58	3579868	228.073430214	1.405900924
58	3595494	229.473009496	1.399579282
58	3622843	231.650262171	2.177252675
58	3661980	236.302891301	4.65262913
58	3689469	239.76375068	3.460859379
58	3705316	241.951372153	2.187621473
58	3708112	242.354801669	0.403429516
58	3738123	244.841495857	2.486694188
58	3741233	245.124857364	0.283361507
58	3746042	245.47650868	0.351651316
58	3798516	249.918616353	4.442107673
58	3814941	251.150550613	1.23193426
58	3840676	252.283825359	1.133274746
58	3863044	253.735926601	1.452101242
58	3885851	255.232033139	1.496106538
58	3898904	256.263092797	1.031059658
58	3899708	256.32462396	0.061531163
58	3915125	257.588952555	1.264328595
58	3955697	260.431414622	2.842462067
58	3969607	261.318130618	0.886715996
58	3975829	261.955164519	0.637033901
58	3993732	262.773824874	0.818660355
58	4042265	265.524481513	2.750656639
58	4046772	265.751557322	0.227075809
58	4093639	268.875882539	3.124325217
58	4150229	274.870605243	5.994722704
58	4162388	276.5368572	1.666251957
58	4181012	279.352959377	2.816102177
58	4181589	279.452023585	0.099064208
58	4216187	282.435355584	2.983331999
58	4236922	284.10987777	1.674522186
58	4253839	284.912969251	0.803091481
58	4276547	287.384688965	2.471719714
58	4306912	290.877895221	3.493206256
58	4313971	291.569431358	0.691536137
58	4319472	292.513336826	0.943905468
58	4363543	295.135224503	2.621887677
58	4366354	295.287705048	0.152480545
58	4395190	296.615210905	1.327505857
58	4403804	297.468837936	0.853627031
58	4459715	301.151156367	3.682318431
58	4483757	302.275731127	1.12457476
58	4532595	305.517741613	3.242010486
58	4539101	306.147426186	0.629684573
58	4557952	308.121037429	1.973611243
58	4571421	309.370986784	1.249949355
58	4575153	309.754100993	0.383114209
58	4579000	310.107262265	0.353161272
58	4628742	313.409010641	3.301748376
58	4641011	314.239408941	0.8303983
58	4662803	315.292103687	1.052694746
58	4667674	315.605993604	0.313889917
58	4715301	318.616654862	3.010661258
58	4717637	318.810831375	0.194176513
58	4766304	321.320711283	2.509879908
58	4768998	321.662685148	0.341973865
58	4771093	321.912484843	0.249799695
58	4858824	330.194349287	8.281864444
58	4882044	332.580024778	2.385675491
58	4906645	334.718108665	2.138083887
58	4949027	340.16095662	5.442847955
58	4958949	341.869891772	1.708935152
58	4967301	342.485275903	0.615384131
58	4972067	342.866586664	0.381310761
58	4993380	345.442785754	2.57619909
58	5063871	352.090560382	6.647774628
58	5069406	352.750886102	0.66032572
58	5109433	357.408708687	4.657822585
58	5168982	362.108101918	4.699393231
58	5191565	365.45796454	3.349862622
58	5192275	365.587597501	0.129632961
58	5194452	365.815168557	0.227571056
58	5201664	366.505417879	0.690249322
58	5246971	369.743544233	3.238126354
58	5297600	374.706471253	4.96292702
58	5309627	376.106884177	1.400412924
58	5334823	378.845833803	2.738949626
58	5334892	378.85678679	0.010952987
58	5338308	379.18640804	0.32962125
58	5358189	381.511939094	2.325531054
58	5386553	383.75111214	2.239173046
58	5388444	383.834890524	0.083778384
58	5400551	384.856013634	1.02112311
58	5452751	387.488594344	2.63258071
58	5495404	390.694085615	3.205491271
58	5504783	391.960780497	1.266694882
58	5524756	395.215474167	3.25469367
58	5594686	400.738551044	5.523076877
58	5629684	405.021086739	4.282535695
58	5635678	405.703609069	0.68252233
58	5643216	406.395002347	0.691393278
58	5647804	406.871895548	0.476893201
58	5650557	407.350794687	0.478899139
58	5697239	409.427944383	2.077149696
58	5718142	410.440086474	1.012142091
58	5735824	411.734182237	1.294095763
58	5788985	416.66004537	4.925863133
58	5790912	416.919613527	0.259568157
58	5850370	423.073910484	6.154296957
58	5879961	426.264905245	3.190994761
58	5883552	426.662814774	0.397909529
58	5907367	428.672165017	2.009350243
58	5913392	429.247131989	0.574966972