version 2
run PastryDHT-0-20211210-14:20:51-12092
attr Lifetime 5000s
attr configname PastryDHT
attr datetime 20211210-14:20:51
attr experiment PastryDHT
attr inifile configs.ini
attr iterationvars $Lifetime=5000s
attr iterationvars2 "$Lifetime=5000s, $repetition=0"
attr measurement $Lifetime=5000s
attr network oversim.underlay.simpleunderlay.SimpleUnderlayNetwork
attr processid 12092
attr repetition 0
attr replication #0
attr resultdir results
attr runnumber 0
attr seedset 0

vector 1  SimpleUnderlayNetwork.globalObserver.globalStatistics  "GlobalDhtTestMap: Number of stored DHT entries"  ETV
vector 2  SimpleUnderlayNetwork.globalObserver.globalStatistics  "LifetimeChurn: Session Time"  ETV
vector 3  SimpleUnderlayNetwork.globalObserver.globalStatistics  "LifetimeChurn: Time between creates"  ETV
vector 4  SimpleUnderlayNetwork.globalObserver.globalStatistics  "LifetimeChurn: Time between deletes"  ETV
vector 5  SimpleUnderlayNetwork.globalObserver.globalStatistics  "GlobalNodeList: Number of nodes"  ETV
1	145662	110	103
1	159160	120	125
1	162321	130	168
1	170447	140	194
1	172898	150	199
1	176097	160	199
1	177946	170	203
1	181971	180	230
1	190995	190	262
1	201193	200	288
1	208522	210	297
1	210853	220	300
1	214000	230	310
1	217203	240	330
1	219201	250	367
1	221975	260	385
1	224535	270	401
1	228513	280	406
1	231452	290	418
1	233340	300	436
1	236337	310	467
1	238428	320	488
1	251030	330	501
1	256398	340	507
1	260169	350	516
1	263100	360	515
1	265902	370	490
1	268467	380	490
1	271915	390	503
1	275032	400	510
1	278470	410	515
1	281224	420	511
1	283143	430	492
1	286200	440	490
1	296056	450	505
1	300109	460	516
1	310858	470	515
1	314349	480	508
1	318122	490	498
1	320471	500	495
1	323754	510	508
1	332782	520	514
1	337343	530	512
1	339790	540	502
1	344156	550	492
1	348247	560	496
1	352172	570	502
1	355176	580	511
1	357306	590	505
1	359495	600	499
1	361765	610	493
1	364139	620	495
1	367106	630	508
1	370289	640	510
1	372377	650	510
1	375261	660	508
1	377189	670	498
1	385296	680	496
1	388539	690	502
1	392352	700	510
1	396085	710	509
1	406337	720	508
1	417728	730	503
1	421476	740	505
1	424102	750	500
1	427219	760	503
1	436305	770	512
1	439408	780	507
1	447286	790	504
1	449972	800	505
1	453592	810	502
1	456481	820	504
1	459081	830	512
1	461501	840	518
1	464638	850	508
1	468469	860	505
1	470875	870	504
1	473450	880	500
1	475605	890	512
1	478649	900	514
1	483097	910	511
1	489064	920	503
1	492604	930	496
1	495477	940	504
1	498058	950	507
1	509386	960	507
1	511568	970	505
1	513782	980	502
1	521117	990	502
1	526699	1000	505
1	535329	1010	509
1	544821	1020	511
1	546808	1030	508
1	549112	1040	504
1	554143	1050	502
1	557689	1060	507
1	560744	1070	511
1	565058	1080	516
1	569967	1090	515
1	572304	1100	499
2	146134	110.95064073	6721.226360761
2	163614	134.941766564	3909.878604378
2	180571	178.933927759	2614.350150442
2	191000	190.014148746	3224.542455829
2	201973	201.414564423	10129.544085516
2	238643	320.576452331	522.806128875
2	286947	443.852411697	4289.478205371
2	302998	465.805130621	2057.889981213
2	326740	517.670419707	6492.228178023
2	378702	676.703116363	3347.702954305
2	398887	716.653567803	9236.638255009
2	410821	726.265106909	2316.950137699
2	428786	766.154268324	7528.921293186
2	440811	786.427927524	3841.266709337
2	498321	951.474876095	6931.456760105
2	515738	987.931072616	9325.915862197
2	525855	999.147537295	1115.696040504
2	534640	1009.277689603	8768.573225117
2	572378	1104.402982536	7533.176666362
3	146134	110.95064073	43.484389688
3	163614	134.941766564	23.991125834
3	180571	178.933927759	43.992161195
3	191000	190.014148746	11.080220987
3	201973	201.414564423	11.400415677
3	238643	320.576452331	119.161887908
3	286947	443.852411697	123.275959366
3	302998	465.805130621	21.952718924
3	326740	517.670419707	51.865289086
3	378702	676.703116363	159.032696656
3	398887	716.653567803	39.95045144
3	410821	726.265106909	9.611539106
3	428786	766.154268324	39.889161415
3	440811	786.427927524	20.2736592
3	498321	951.474876095	165.046948571
3	515738	987.931072616	36.456196521
3	525855	999.147537295	11.216464679
3	534640	1009.277689603	10.130152308
3	572378	1104.402982536	95.125292933
4	160707	122.699207253	26.085505758
4	224397	269.532376732	146.833169479
4	228805	281.551960798	12.019584066
4	229450	285.313177116	3.761216318
4	238588	320.518121026	35.20494391
4	293501	446.67057227	126.152451244
4	320600	500.291364231	53.620791961
4	334130	523.125818242	22.834454011
4	392313	699.882398607	176.756580365
4	408852	722.8397739	22.957375293
4	458893	828.382581206	105.542807306
4	472286	874.520396956	46.13781575
4	545963	1026.015137286	151.49474033
4	553446	1047.651112774	21.635975488
5	172897	150	101
5	201192	200	103
5	219200	250	104
5	233339	300	102
5	260168	350	101
5	275031	400	101
5	296055	450	102
5	320470	500	102
5	344155	550	101
5	359494	600	101
5	372376	650	101
5	392351	700	102
5	424101	750	102
5	449971	800	104
5	464637	850	103
5	478648	900	102
5	498057	950	102
5	526698	1000	105
5	554142	1050	105
5	572303	1100	104
