version 2
run PastryDHT-0-20211206-23:49:57-4724
attr Lifetime 100s
attr configname PastryDHT
attr datetime 20211206-23:49:57
attr experiment PastryDHT
attr inifile configs.ini
attr iterationvars $Lifetime=100s
attr iterationvars2 "$Lifetime=100s, $repetition=0"
attr measurement $Lifetime=100s
attr network oversim.underlay.simpleunderlay.SimpleUnderlayNetwork
attr processid 4724
attr repetition 0
attr replication #0
attr resultdir results
attr runnumber 0
attr seedset 0

vector 1  SimpleUnderlayNetwork.globalObserver.globalStatistics  "GlobalNodeList: Number of nodes"  ETV
vector 2  SimpleUnderlayNetwork.globalObserver.globalStatistics  "GlobalDhtTestMap: Number of stored DHT entries"  ETV
vector 3  SimpleUnderlayNetwork.globalObserver.globalStatistics  "LifetimeChurn: Time between deletes"  ETV
vector 4  SimpleUnderlayNetwork.globalObserver.globalStatistics  "LifetimeChurn: Session Time"  ETV
vector 5  SimpleUnderlayNetwork.globalObserver.globalStatistics  "LifetimeChurn: Time between creates"  ETV
1	7917159	150	551
1	11778740	200	542
1	15556739	250	537
1	19513209	300	533
1	23318066	350	546
1	27523088	400	571
1	31883186	450	584
1	35915089	500	561
1	39816818	550	555
1	43726437	600	538
1	47595726	650	558
1	51331029	700	546
1	55027690	750	548
1	59010881	800	565
1	63169309	850	555
1	67077634	900	548
1	70809734	950	535
1	74931685	1000	564
1	79006024	1050	553
1	82762965	1100	536
2	7917160	150	498
2	8673434	160	564
2	9478979	170	619
2	10237315	180	680
2	10984010	190	726
2	11778741	200	790
2	12562965	210	849
2	13263474	220	901
2	13967565	230	954
2	14742041	240	1016
2	15556740	250	1068
2	16355142	260	1128
2	17224994	270	1185
2	18030387	280	1243
2	18715431	290	1292
2	19513210	300	1358
2	20225389	310	1412
2	20975307	320	1476
2	21747819	330	1539
2	22467523	340	1605
2	23318067	350	1651
2	24139795	360	1675
2	24996078	370	1692
2	25813886	380	1679
2	26666878	390	1697
2	27523089	400	1708
2	28479754	410	1704
2	29397296	420	1718
2	30250587	430	1732
2	31060369	440	1733
2	31883187	450	1746
2	32727352	460	1747
2	33520112	470	1744
2	34293403	480	1745
2	35131750	490	1759
2	35915090	500	1747
2	36692143	510	1749
2	37414236	520	1762
2	38137010	530	1769
2	38975109	540	1767
2	39816819	550	1766
2	40696702	560	1764
2	41443984	570	1776
2	42180270	580	1774
2	43023025	590	1792
2	43726438	600	1772
2	44435323	610	1771
2	45244821	620	1773
2	45967110	630	1758
2	46763036	640	1753
2	47595727	650	1760
2	48428310	660	1789
2	49178920	670	1780
2	49927360	680	1779
2	50555502	690	1779
2	51331030	700	1764
2	52065593	710	1769
2	52785332	720	1781
2	53505268	730	1782
2	54248154	740	1775
2	55027691	750	1753
2	55873876	760	1750
2	56613745	770	1751
2	57386456	780	1753
2	58172005	790	1759
2	59010882	800	1759
2	59846691	810	1760
2	60677245	820	1757
2	61491209	830	1752
2	62298828	840	1749
2	63169310	850	1763
2	63941562	860	1753
2	64719407	870	1736
2	65473902	880	1743
2	66302266	890	1743
2	67077635	900	1756
2	67854679	910	1750
2	68656174	920	1750
2	69380241	930	1763
2	70093481	940	1763
2	70809735	950	1767
2	71635357	960	1760
2	72358647	970	1766
2	73198293	980	1750
2	74024498	990	1755
2	74931686	1000	1757
2	75686244	1010	1759
2	76564928	1020	1743
2	77379385	1030	1747
2	78216915	1040	1757
2	79006025	1050	1779
2	79784966	1060	1772
2	80531351	1070	1780
2	81283919	1080	1761
2	81998338	1090	1755
2	82762966	1100	1757
2	83526462	1110	1754
2	84264106	1120	1755
2	85037353	1130	1752
2	85763524	1140	1736
3	7922376	150.070355167	0.101838223
3	7941280	150.354475138	0.284119971
3	7951294	150.498920158	0.14444502
3	7961203	150.616424639	0.117504481
3	7974863	150.801354048	0.184929409
3	7995763	151.036504355	0.235150307
3	8007172	151.224516716	0.188012361
3	8017794	151.399638688	0.175121972
3	8029146	151.502180118	0.10254143
3	8033890	151.566999227	0.064819109
3	8043312	151.680637607	0.11363838
3	8056520	151.855522895	0.174885288
3	8057400	151.871642184	0.016119289
3	8077622	152.152193264	0.28055108
3	8095118	152.398452624	0.24625936
3	8109564	152.560131788	0.161679164
3	8118061	152.645417085	0.085285297
3	8121527	152.690067468	0.044650383
3	8136437	152.877132354	0.187064886
3	8152458	153.118700097	0.241567743
3	8166907	153.404217627	0.28551753
3	8174101	153.511010012	0.106792385
3	8177400	153.550984018	0.039974006
3	8188657	153.707828244	0.156844226
3	8209698	154.008525549	0.300697305
3	8215985	154.091153717	0.082628168
3	8221932	154.19048938	0.099335663
3	8222339	154.197795501	0.007306121
3	8231478	154.333210137	0.135414636
3	8235285	154.390143249	0.056933112
3	8241519	154.479184784	0.089041535
3	8243230	154.500450782	0.021265998
3	8258506	154.657044116	0.156593334
3	8284720	155.058167319	0.401123203
3	8298822	155.288939912	0.230772593
3	8299576	155.301071182	0.01213127
3	8301791	155.339950518	0.038879336
3	8316144	155.576642072	0.236691554
3	8328837	155.745308283	0.168666211
3	8331057	155.782641335	0.037333052
3	8353546	156.056913523	0.274272188
3	8434770	157.132860479	1.075946956
3	8481544	157.642901414	0.510040935
3	8484942	157.679339035	0.036437621
3	8492931	157.786094645	0.10675561
3	8502356	157.931362704	0.145268059
3	8513739	158.038787807	0.107425103
3	8514346	158.044874347	0.00608654
3	8540771	158.373591821	0.328717474
3	8552596	158.595689518	0.222097697
3	8562518	158.754035082	0.158345564
3	8586014	159.064575179	0.310540097
3	8592605	159.160833489	0.09625831
3	8613451	159.310838157	0.150004668
3	8628604	159.443251023	0.132412866
3	8629722	159.456709834	0.013458811
3	8690951	160.154975392	0.698265558
3	8710446	160.49001296	0.335037568
3	8712454	160.53674424	0.04673128
3	8713557	160.566406432	0.029662192
3	8752499	161.131867172	0.56546074
3	8755607	161.157452066	0.025584894
3	8766613	161.239928222	0.082476156
3	8771275	161.274853413	0.034925191
3	8772671	161.286381161	0.011527748
3	8780772	161.377023621	0.09064246
3	8793831	161.551427274	0.174403653
3	8802461	161.633055721	0.081628447
3	8809359	161.7214037	0.088347979
3	8812698	161.786106447	0.064702747
3	8828463	162.014408873	0.228302426
3	8833012	162.09290014	0.078491267
3	8849686	162.406841752	0.313941612
3	8917462	163.364487656	0.957645904
3	8923304	163.420377676	0.05589002
3	8932320	163.491328612	0.070950936
3	9021611	164.599718273	1.108389661
3	9030871	164.699639862	0.099921589
3	9055712	164.965945888	0.266306026
3	9063931	165.078525293	0.112579405
3	9067971	165.120259536	0.041734243
3	9073901	165.186192736	0.0659332
3	9083535	165.275772707	0.089579971
3	9112417	165.599270594	0.323497887
3	9142548	165.945619855	0.346349261
3	9190474	166.459962204	0.514342349
3	9198923	166.584517607	0.124555403
3	9207669	166.694494976	0.109977369
3	9238869	167.015448899	0.320953923
3	9245052	167.067355708	0.051906809
3	9260697	167.225738217	0.158382509
3	9278699	167.400761317	0.1750231
3	9285314	167.479930197	0.07916888
3	9296199	167.644474288	0.164544091
3	9313242	167.906120073	0.261645785
3	9322457	167.974080841	0.067960768
3	9329333	168.033790825	0.059709984
3	9339782	168.172660881	0.138870056
3	9365202	168.509643157	0.336982276
3	9373806	168.657401751	0.147758594
3	9374351	168.663749137	0.006347386
3	9419030	169.146783451	0.483034314
3	9446546	169.541740939	0.394957488
3	9452811	169.639695159	0.09795422
3	9457147	169.704725356	0.065030197
3	9463019	169.822121157	0.117395801
3	9486657	170.085145189	0.263024032
3	9493453	170.178628527	0.093483338
3	9500802	170.324045083	0.145416556
3	9524050	170.640585632	0.316540549
3	9559355	171.083644155	0.443058523
3	9579140	171.292006926	0.208362771
3	9589520	171.443540029	0.151533103
3	9605756	171.710489589	0.26694956
3	9611627	171.831277616	0.120788027
3	9625250	172.060828862	0.229551246
3	9637408	172.240536304	0.179707442
3	9647005	172.420720016	0.180183712
3	9675719	172.826449589	0.405729573
3	9690389	173.059039047	0.232589458
3	9738320	173.765580815	0.706541768
3	9741312	173.804211612	0.038630797
3	9752328	173.944715878	0.140504266
3	9755514	173.979545833	0.034829955
3	9763415	174.103095244	0.123549411
3	9764733	174.119852027	0.016756783
3	9768155	174.160432703	0.040580676
3	9786183	174.434507785	0.274075082
3	9794329	174.583152582	0.148644797
3	9797422	174.637789603	0.054637021
3	9807745	174.774219134	0.136429531
3	9814603	174.860877804	0.08665867
3	9815822	174.880272117	0.019394313
3	9822451	174.997971954	0.117699837
3	9830711	175.093467736	0.095495782
3	9842980	175.193190051	0.099722315
3	9851926	175.274335927	0.081145876
3	9879259	175.576886179	0.302550252
3	9886142	175.655668053	0.078781874
3	9905849	175.832699219	0.177031166
3	9930055	176.131074966	0.298375747
3	9943577	176.295026569	0.163951603
3	10028270	177.347663159	1.05263659
3	10049635	177.543434254	0.195771095
3	10070375	177.745986072	0.202551818
3	10087448	177.946308881	0.200322809
3	10112122	178.339036352	0.392727471
3	10119411	178.464555477	0.125519125
3	10139543	178.777419905	0.312864428
3	10143853	178.856277582	0.078857677
3	10156559	179.07326156	0.216983978
3	10171456	179.241621071	0.168359511
3	10180807	179.353863497	0.112242426
3	10220052	179.782452989	0.428589492
3	10225939	179.860736742	0.078283753
3	10227211	179.875407082	0.01467034
3	10230105	179.911159802	0.03575272
3	10238144	180.012035652	0.10087585
3	10273509	180.504293527	0.492257875
3	10275782	180.541515972	0.037222445
3	10280515	180.604682546	0.063166574
3	10282446	180.625995572	0.021313026
3	10288511	180.685201644	0.059206072
3	10294794	180.749630574	0.06442893
3	10313514	181.0069507	0.257320126
3	10321376	181.141880443	0.134929743
3	10403915	182.263897688	1.122017245
3	10413243	182.430513689	0.166616001
3	10427901	182.594374485	0.163860796
3	10449709	182.801921331	0.207546846
3	10452423	182.830087945	0.028166614
3	10475019	183.077996393	0.247908448
3	10480311	183.136932388	0.058935995
3	10491780	183.286828892	0.149896504
3	10498778	183.383582938	0.096754046
3	10501656	183.444496325	0.060913387
3	10501801	183.445792067	0.001295742
3	10502044	183.451351496	0.005559429
3	10509980	183.654260533	0.202909037
3	10512242	183.708256522	0.053995989
3	10534829	184.041836412	0.33357989
3	10541980	184.129736643	0.087900231
3	10542784	184.141020964	0.011284321
3	10543866	184.153028236	0.012007272
3	10549587	184.252118741	0.099090505
3	10605684	184.968700186	0.716581445
3	10614169	185.087805577	0.119105391
3	10622392	185.181713631	0.093908054
3	10624063	185.20507461	0.023360979
3	10655876	185.653249714	0.448175104
3	10664806	185.791193477	0.137943763
3	10675139	185.956870729	0.165677252
3	10703868	186.391824571	0.434953842
3	10717872	186.592072922	0.200248351
3	10729814	186.720400678	0.128327756
3	10746513	186.919754657	0.199353979
3	10750668	186.974658827	0.05490417
3	10770989	187.193376504	0.218717677
3	10799450	187.471286536	0.277910032
3	10808645	187.575994121	0.104707585
3	10831551	187.885720652	0.309726531
3	10835685	187.95300991	0.067289258
3	10837886	187.976731478	0.023721568
3	10845694	188.084969334	0.108237856
3	10859389	188.301154428	0.216185094
3	10860769	188.324545245	0.023390817
3	10869141	188.51078089	0.186235645
3	10873483	188.582270222	0.071489332
3	10876711	188.615167414	0.032897192
3	10888281	188.739103534	0.12393612
3	10925652	189.169879045	0.430775511
3	10945397	189.460024226	0.290145181
3	10962573	189.720044708	0.260020482
3	11016451	190.346470542	0.626425834
3	11047704	190.842335325	0.495864783
3	11061849	191.002533094	0.160197769
3	11062096	191.00569281	0.003159716
3	11094660	191.441400673	0.435707863
3	11098831	191.529042342	0.087641669
3	11099385	191.541600563	0.012558221
3	11126181	191.861425781	0.319825218
3	11145382	192.112315874	0.250890093
3	11169919	192.378103957	0.265788083
3	11171595	192.401402145	0.023298188
3	11174077	192.434600583	0.033198438
3	11176063	192.458632723	0.02403214
3	11178286	192.490613674	0.031980951
3	11178706	192.499402784	0.00878911
3	11182554	192.557405019	0.058002235
3	11184667	192.595959228	0.038554209
3	11204772	192.844268937	0.248309709
3	11208963	192.914776235	0.070507298
3	11218195	193.001305548	0.086529313
3	11232070	193.134904709	0.133599161
3	11240783	193.253023185	0.118118476
3	11265702	193.550569459	0.297546274
3	11278866	193.695296163	0.144726704
3	11280553	193.711407129	0.016110966
3	11285974	193.76358363	0.052176501
3	11287926	193.785010538	0.021426908
3	11330218	194.402703879	0.617693341
3	11342819	194.621016404	0.218312525
3	11345183	194.6459437	0.024927296
3	11370755	194.947485474	0.301541774
3	11381751	195.023020066	0.075534592
3	11387423	195.075421859	0.052401793
3	11390057	195.106671179	0.03124932
3	11391632	195.126998357	0.020327178
3	11398442	195.203702384	0.076704027
3	11407022	195.29907731	0.095374926
3	11420505	195.460057549	0.160980239
3	11428000	195.57272542	0.112667871
3	11435022	195.672073645	0.099348225
3	11437846	195.707857607	0.035783962
3	11438745	195.718368536	0.010510929
3	11454879	195.909909759	0.191541223
3	11472326	196.140285823	0.230376064
3	11473443	196.159134456	0.018848633
3	11477082	196.214289348	0.055154892
3	11485634	196.335562018	0.12127267
3	11488454	196.377012601	0.041450583
3	11552129	197.168888982	0.791876381
3	11561314	197.313832375	0.144943393
3	11606702	197.876818933	0.562986558
3	11607271	197.881754082	0.004935149
3	11615950	197.988549471	0.106795389
3	11618790	198.027977415	0.039427944
3	11648674	198.403094286	0.375116871
3	11650004	198.417641557	0.014547271
3	11655802	198.455824546	0.038182989
3	11656604	198.460382613	0.004558067
3	11666223	198.527004251	0.066621638
3	11667318	198.536194259	0.009190008
3	11729702	199.234065755	0.697871496
3	11750939	199.593344648	0.359278893
3	11758027	199.713460942	0.120116294
3	11779408	200.009341391	0.295880449
3	11793432	200.234820164	0.225478773
3	11833973	200.701511229	0.466691065
3	11836842	200.737051435	0.035540206
3	11843601	200.796012985	0.05896155
3	11844953	200.808329	0.012316015
3	11848434	200.844073534	0.035744534
3	11869250	201.076082782	0.232009248
3	11870973	201.098977102	0.02289432
3	11875732	201.149818982	0.05084188
3	11914309	201.70807606	0.558257078
3	11917955	201.78108547	0.07300941
3	11927318	201.910461198	0.129375728
3	11934318	201.998022098	0.0875609
3	11975025	202.500904343	0.502882245
3	12023811	203.076848083	0.57594374
3	12024252	203.083122626	0.006274543
3	12024767	203.090517597	0.007394971
3	12029572	203.186214294	0.095696697
3	12037373	203.370332431	0.184118137
3	12040355	203.442339978	0.072007547
3	12046257	203.577714405	0.135374427
3	12053460	203.695318085	0.11760368
3	12057057	203.756235637	0.060917552
3	12070982	203.967382503	0.211146866
3	12074405	204.013390278	0.046007775
3	12077793	204.071393989	0.058003711
3	12095595	204.27743854	0.206044551
3	12112247	204.433361958	0.155923418
3	12117944	204.471358645	0.037996687
3	12148911	204.831709443	0.360350798
3	12154787	204.888045987	0.056336544
3	12176161	205.092651143	0.204605156
3	12202165	205.379729234	0.287078091
3	12223976	205.616584266	0.236855032
3	12239722	205.858191715	0.241607449
3	12280035	206.440729676	0.582537961
3	12308196	206.743290001	0.302560325
3	12322306	206.894881711	0.15159171
3	12329292	206.966186917	0.071305206
3	12334927	207.033478792	0.067291875
3	12351734	207.221655764	0.188176972
3	12356243	207.273665715	0.052009951
3	12365042	207.37913427	0.105468555
3	12380620	207.542538427	0.163404157
3	12381622	207.551592977	0.00905455
3	12385523	207.603967128	0.052374151
3	12398269	207.843133925	0.239166797
3	12410501	208.006751419	0.163617494
3	12420734	208.168209711	0.161458292
3	12430780	208.316515877	0.148306166
3	12431309	208.324880242	0.008364365
3	12431918	208.33267759	0.007797348
3	12435379	208.381554004	0.048876414
3	12436064	208.388118781	0.006564777
3	12446593	208.493676424	0.105557643
3	12447376	208.5046222	0.010945776
3	12449517	208.53344146	0.02881926
3	12453989	208.597691123	0.064249663
3	12462606	208.697472727	0.099781604
3	12490458	208.949311585	0.251838858
3	12513495	209.274176974	0.324865389
3	12514586	209.288503151	0.014326177
3	12547092	209.756293965	0.467790814
3	12549394	209.801312852	0.045018887
3	12562267	209.987883409	0.186570557
3	12567326	210.094753527	0.106870118
3	12568082	210.112998411	0.018244884
3	12570963	210.180924111	0.0679257
3	12585053	210.386235009	0.205310898
3	12598985	210.528659502	0.142424493
3	12605064	210.613227906	0.084568404
3	12618861	210.841924131	0.228696225
3	12648134	211.201248924	0.359324793
3	12683428	211.649259998	0.448011074
3	12696669	211.855870853	0.206610855
3	12703532	211.966122515	0.110251662
3	12713158	212.154633335	0.18851082
3	12715103	212.180062735	0.0254294
3	12725701	212.362036946	0.181974211
3	12730324	212.435468434	0.073431488
3	12747119	212.720322079	0.284853645
3	12784670	213.187007305	0.466685226
3	12812895	213.610974059	0.423966754
3	12832663	213.919501755	0.308527696
3	12833912	213.934284914	0.014783159
3	12842446	214.049130173	0.114845259
3	12880249	214.627212913	0.57808274
3	12926006	215.218694446	0.591481533
3	12938560	215.388062624	0.169368178
3	12961851	215.718356339	0.330293715
3	13093184	217.503624686	1.785268347
3	13094432	217.519133195	0.015508509
3	13109568	217.733595342	0.214462147
3	13125941	217.964108474	0.230513132
3	13126392	217.96985605	0.005747576
3	13127980	217.999678838	0.029822788
3	13174739	218.843200254	0.843521416
3	13184523	218.951423057	0.108222803
3	13199657	219.13580465	0.184381593
3	13238160	219.682756767	0.546952117
3	13257325	219.931282793	0.248526026
3	13260833	219.966492027	0.035209234
3	13274293	220.179620664	0.213128637
3	13280085	220.288681278	0.109060614
3	13339051	221.112848341	0.824167063
3	13344765	221.208517592	0.095669251
3	13347802	221.269652341	0.061134749
3	13351414	221.35067955	0.081027209
3	13352777	221.381073881	0.030394331
3	13369428	221.628784649	0.247710768
3	13415160	222.217929526	0.589144877
3	13416407	222.239300379	0.021370853
3	13423515	222.350761721	0.111461342
3	13423548	222.351600231	0.00083851
3	13435258	222.512851615	0.161251384
3	13533211	223.907720774	1.394869159
3	13540069	223.978187894	0.07046712
3	13565373	224.375306938	0.397119044
3	13572383	224.446780494	0.071473556
3	13579470	224.506149105	0.059368611
3	13598955	224.719643794	0.213494689
3	13626927	225.149784137	0.430140343
3	13632955	225.204217443	0.054433306
3	13644284	225.321798468	0.117581025
3	13644348	225.323008421	0.001209953
3	13651851	225.400081382	0.077072961
3	13665338	225.572273319	0.172191937
3	13679479	225.808768663	0.236495344
3	13683291	225.880121439	0.071352776
3	13689818	225.957226472	0.077105033
3	13692852	225.990147907	0.032921435
3	13701069	226.09366151	0.103513603
3	13719409	226.361634534	0.267973024
3	13724328	226.434068892	0.072434358
3	13748128	226.790447516	0.356378624
3	13761732	227.012895443	0.222447927
3	13774318	227.179265704	0.166370261
3	13776253	227.200972646	0.021706942
3	13793973	227.372353449	0.171380803
3	13812837	227.535200396	0.162846947
3	13851688	228.205921223	0.670720827
3	13857299	228.277639426	0.071718203
3	13859118	228.306087488	0.028448062
3	13869033	228.48936974	0.183282252
3	13878144	228.640549332	0.151179592
3	13886222	228.76263527	0.122085938
3	13915967	229.185136803	0.422501533
3	13922881	229.287074757	0.101937954
3	13953362	229.719607962	0.432533205
3	13990935	230.357018294	0.637410332
3	13994302	230.403939937	0.046921643
3	14013546	230.671837692	0.267897755
3	14028724	230.873610094	0.201772402
3	14049208	231.168304017	0.294693923
3	14069283	231.514186052	0.345882035
3	14074639	231.600965064	0.086779012
3	14090349	231.83421275	0.233247686
3	14092638	231.862353743	0.028140993
3	14093547	231.8742966	0.011942857
3	14107410	232.041200934	0.166904334
3	14110580	232.082981487	0.041780553
3	14118389	232.193228122	0.110246635
3	14126326	232.292743879	0.099515757
3	14130592	232.351101613	0.058357734
3	14142093	232.502891529	0.151789916
3	14155032	232.639798409	0.13690688
3	14186820	233.024181232	0.384382823
3	14195830	233.200053913	0.175872681
3	14202298	233.299083625	0.099029712
3	14215012	233.435152102	0.136068477
3	14215564	233.439747549	0.004595447
3	14223902	233.509998332	0.070250783
3	14248592	233.865836456	0.355838124
3	14255267	233.951644173	0.085807717
3	14258149	233.992668345	0.041024172
3	14266541	234.086447979	0.093779634
3	14294172	234.366464219	0.28001624
3	14296837	234.405003418	0.038539199
3	14320356	234.732086757	0.327083339
3	14328552	234.874622536	0.142535779
3	14342681	235.058723497	0.184100961
3	14373535	235.426318155	0.367594658
3	14375919	235.455880202	0.029562047
3	14395789	235.675584827	0.219704625
3	14398832	235.708256971	0.032672144
3	14442087	236.226636124	0.518379153
3	14459292	236.498078018	0.271441894
3	14459765	236.5053063	0.007228282
3	14470612	236.662795854	0.157489554
3	14474056	236.7292438	0.066447946
3	14496270	237.050218858	0.320975058
3	14516540	237.281290949	0.231072091
3	14542573	237.633296567	0.352005618
3	14630429	238.611510684	0.978214117
3	14650399	238.883927342	0.272416658
3	14657058	238.975705321	0.091777979
3	14693754	239.446663629	0.470958308
3	14707251	239.648770603	0.202106974
3	14750909	240.090808792	0.442038189
3	14764806	240.219939974	0.129131182
3	14784533	240.444099963	0.224159989
3	14791293	240.537776913	0.09367695
3	14805056	240.74403296	0.206256047
3	14808489	240.801853534	0.057820574
3	14830042	241.072827508	0.270973974
3	14833305	241.120350434	0.047522926
3	14839001	241.208301106	0.087950672
3	14847901	241.320526779	0.112225673
3	14848600	241.330152259	0.00962548
3	14852990	241.382316369	0.05216411
3	14855798	241.419172998	0.036856629
3	14863093	241.528579994	0.109406996
3	14911980	242.030087605	0.501507611
3	14914309	242.062798824	0.032711219
3	14918555	242.120631231	0.057832407
3	14935977	242.290035287	0.169404056
3	14942896	242.377806303	0.087771016
3	14972136	242.761524579	0.383718276
3	14982385	242.87653758	0.115013001
3	14999112	243.052797059	0.176259479
3	15015958	243.265708082	0.212911023
3	15042682	243.685130473	0.419422391
3	15048030	243.740305152	0.055174679
3	15053549	243.794693808	0.054388656
3	15060444	243.861917542	0.067223734
3	15062649	243.884670899	0.022753357
3	15077138	244.088419744	0.203748845
3	15122313	244.701300861	0.612881117
3	15138200	244.85710183	0.155800969
3	15140685	244.880435604	0.023333774
3	15142161	244.892835283	0.012399679
3	15149690	244.973101374	0.080266091
3	15151470	244.999704274	0.0266029
3	15169378	245.278778823	0.279074549
3	15170121	245.292255862	0.013477039
3	15180227	245.497468701	0.205212839
3	15204203	245.800150543	0.302681842
3	15226838	246.120795558	0.320645015
3	15243471	246.298143295	0.177347737
3	15263482	246.563028314	0.264885019
3	15287875	246.901802095	0.338773781
3	15289443	246.920760454	0.018958359
3	15363366	247.810810604	0.89005015
3	15395349	248.216318749	0.405508145
3	15413003	248.424855398	0.208536649
3	15416832	248.469512361	0.044656963
3	15426749	248.580624703	0.111112342
3	15428298	248.602651507	0.022026804
3	15551553	249.931843299	1.329191792
3	15560063	250.043777246	0.111933947
3	15566899	250.141011911	0.097234665
3	15591244	250.454196654	0.313184743
3	15599116	250.556608092	0.102411438
3	15612223	250.742715859	0.186107767
3	15613185	250.753893908	0.011178049
3	15625819	250.91146969	0.157575782
3	15640937	251.07233278	0.16086309
3	15643109	251.103988442	0.031655662
3	15658856	251.30155293	0.197564488
3	15674926	251.46761677	0.16606384
3	15708943	251.807750549	0.340133779
3	15711741	251.833902191	0.026151642
3	15713837	251.857817298	0.023915107
3	15728364	252.01427486	0.156457562
3	15748729	252.231370097	0.217095237
3	15756535	252.332732813	0.101362716
3	15764109	252.447158329	0.114425516
3	15796625	252.916277538	0.469119209
3	15800583	252.948804397	0.032526859
3	15803869	252.977067923	0.028263526
3	15806775	253.005493157	0.028425234
3	15815662	253.140856912	0.135363755
3	15832893	253.328270334	0.187413422
3	15877574	253.878427064	0.55015673
3	15881442	253.948553392	0.070126328
3	15928933	254.521904186	0.573350794
3	15934326	254.611940424	0.090036238
3	15943876	254.740411441	0.128471017
3	15956221	254.871788696	0.131377255
3	15957678	254.890654665	0.018865969
3	15971972	255.058162547	0.167507882
3	15972623	255.067339673	0.009177126
3	16029229	255.76256065	0.695220977
3	16032138	255.805544549	0.042983899
3	16053145	256.064434597	0.258890048
3	16084863	256.578189224	0.513754627
3	16137853	257.325329945	0.747140721
3	16141582	257.362916826	0.037586881
3	16152859	257.465238239	0.102321413
3	16153547	257.470103715	0.004865476
3	16163569	257.564390634	0.094286919
3	16192835	257.893965721	0.329575087
3	16201865	257.987288905	0.093323184
3	16218770	258.228185431	0.240896526
3	16222972	258.293153451	0.06496802
3	16232302	258.411684458	0.118531007
3	16243120	258.567561999	0.155877541
3	16256629	258.763026876	0.195464877
3	16260435	258.839936722	0.076909846
3	16263852	258.906104327	0.066167605
3	16264660	258.913381021	0.007276694
3	16265650	258.925732966	0.012351945
3	16313824	259.453001191	0.527268225
3	16319068	259.512859153	0.059857962
3	16326637	259.61260701	0.099747857
3	16331482	259.698909293	0.086302283
3	16333353	259.738523452	0.039614159
3	16334159	259.754781847	0.016258395
3	16334202	259.755445285	0.000663438
3	16351103	259.959520014	0.204074729
3	16367803	260.17351669	0.213996676
3	16410612	260.66588085	0.49236416
3	16423591	260.839768569	0.173887719
3	16445296	261.062650332	0.222881763
3	16452425	261.129105553	0.066455221
3	16461051	261.212683222	0.083577669
3	16468110	261.278466211	0.065782989
3	16473986	261.331894756	0.053428545
3	16497778	261.622475749	0.290580993
3	16512265	261.876517546	0.254041797
3	16523564	262.069035763	0.192518217
3	16529073	262.130124969	0.061089206
3	16536339	262.227053589	0.09692862
3	16581615	262.76352932	0.536475731
3	16650082	263.446323316	0.682793996
3	16650331	263.450021297	0.003697981
3	16667817	263.612465207	0.16244391
3	16673655	263.676830756	0.064365549
3	16680761	263.755601085	0.078770329
3	16683985	263.798352099	0.042751014
3	16693185	263.888992977	0.090640878
3	16724227	264.315755393	0.426762416
3	16731380	264.371460332	0.055704939
3	16750628	264.602421178	0.230960846
3	16756085	264.673572784	0.071151606
3	16759387	264.719035962	0.045463178
3	16761777	264.753605841	0.034569879
3	16767511	264.825340569	0.071734728
3	16802163	265.221242401	0.395901832
3	16808304	265.300847301	0.0796049
3	16837902	265.629282017	0.328434716
3	16857636	265.847252225	0.217970208
3	16865004	265.920448837	0.073196612
3	16872245	265.9887372	0.068288363
3	16886126	266.165536259	0.176799059
3	16886646	266.171758826	0.006222567
3	16892529	266.263454005	0.091695179
3	16896196	266.301319905	0.0378659
3	16897128	266.307231415	0.00591151
3	16906266	266.376342701	0.069111286
3	16928677	266.630430919	0.254088218
3	16928969	266.634011503	0.003580584
3	16942073	266.783544165	0.149532662
3	16952240	266.899024782	0.115480617
3	16958764	266.960399388	0.061374606
3	16981559	267.178836856	0.218437468
3	16992689	267.281101633	0.102264777
3	17010490	267.518834293	0.23773266
3	17016514	267.61987126	0.101036967
3	17045313	267.989475777	0.369604517
3	17067294	268.266859991	0.277384214
3	17069360	268.295690709	0.028830718
3	17072840	268.332502362	0.036811653
3	17086428	268.503270626	0.170768264
3	17098600	268.673486275	0.170215649
3	17107432	268.763357166	0.089870891
3	17109737	268.787674355	0.024317189
3	17119656	268.902601846	0.114927491
3	17126894	268.959822533	0.057220687
3	17127312	268.962989515	0.003166982
3	17146121	269.154578476	0.191588961
3	17149507	269.189907442	0.035328966
3	17153422	269.232783072	0.04287563
3	17160803	269.300922968	0.068139896
3	17176749	269.474541306	0.173618338
3	17178002	269.492514432	0.017973126
3	17180782	269.53542623	0.042911798
3	17213790	269.897648873	0.362222643
3	17230412	270.052259124	0.154610251
3	17238430	270.144082719	0.091823595
3	17238460	270.144513152	0.000430433
3	17263467	270.424764705	0.280251553
3	17295586	270.770435728	0.345671023
3	17309632	270.917652206	0.147216478
3	17326850	271.134379736	0.21672753
3	17385899	271.836265951	0.701886215
3	17397032	271.915134382	0.078868431
3	17398503	271.927881271	0.012746889
3	17408922	272.023404222	0.095522951
3	17428517	272.251417232	0.22801301
3	17455605	272.591822138	0.340404906
3	17460329	272.656522446	0.064700308
3	17487829	272.9567462	0.300223754
3	17525678	273.570001285	0.613255085
3	17554116	273.919581484	0.349580199
3	17562886	274.034016604	0.11443512
3	17579538	274.200010192	0.165993588
3	17592940	274.341555181	0.141544989
3	17711508	275.928471663	1.586916482
3	17724160	276.097443746	0.168972083
3	17745693	276.351094647	0.253650901
3	17759026	276.519618022	0.168523375
3	17760302	276.532764157	0.013146135
3	17777281	276.690987213	0.158223056
3	17781095	276.738436576	0.047449363
3	17783775	276.77529504	0.036858464
3	17903655	278.390538251	1.615243211
3	17908562	278.458453469	0.067915218
3	17938168	278.77883599	0.320382521
3	17957074	279.063385669	0.284549679
3	17962203	279.13467083	0.071285161
3	17966537	279.195910954	0.061240124
3	17969355	279.231826971	0.035916017
3	17990606	279.492679722	0.260852751
3	17991571	279.50129425	0.008614528
3	18030518	280.002414258	0.501120008
3	18047804	280.287162887	0.284748629
3	18050595	280.320156406	0.032993519
3	18062100	280.441047317	0.120890911
3	18082137	280.769508217	0.3284609
3	18091715	280.956200086	0.186691869
3	18108035	281.241526501	0.285326415
3	18121806	281.422586808	0.181060307
3	18136018	281.643325155	0.220738347
3	18152768	281.879104416	0.235779261
3	18158984	281.971738592	0.092634176
3	18161703	282.012509631	0.040771039
3	18175149	282.224474543	0.211964912
3	18177963	282.284295893	0.05982135
3	18192840	282.554069229	0.269773336
3	18197116	282.636575769	0.08250654
3	18218205	282.977670146	0.341094377
3	18218682	282.990806314	0.013136168
3	18222827	283.087231927	0.096425613
3	18223462	283.103851404	0.016619477
3	18223904	283.113918305	0.010066901
3	18224030	283.115775006	0.001856701
3	18251393	283.53367426	0.417899254
3	18253928	283.573179888	0.039505628
3	18255993	283.610594747	0.037414859
3	18258833	283.667114887	0.05652014
3	18264040	283.775149799	0.108034912
3	18287060	284.162101476	0.386951677
3	18291622	284.230539304	0.068437828
3	18330103	284.915135785	0.684596481
3	18332778	284.968816179	0.053680394
3	18339827	285.07446117	0.105644991
3	18342774	285.137488873	0.063027703
3	18347196	285.233988892	0.096500019