version 2
run PastryDHT-2-20211207-12:19:06-4660
attr Lifetime 300s
attr configname PastryDHT
attr datetime 20211207-12:19:06
attr experiment PastryDHT
attr inifile configs.ini
attr iterationvars $Lifetime=300s
attr iterationvars2 "$Lifetime=300s, $repetition=0"
attr measurement $Lifetime=300s
attr network oversim.underlay.simpleunderlay.SimpleUnderlayNetwork
attr processid 4660
attr repetition 0
attr replication #0
attr resultdir results
attr runnumber 2
attr seedset 2

vector 13  SimpleUnderlayNetwork.globalObserver.globalStatistics  "GlobalNodeList: Number of nodes"  ETV
vector 14  SimpleUnderlayNetwork.globalObserver.globalStatistics  "GlobalDhtTestMap: Number of stored DHT entries"  ETV
vector 15  SimpleUnderlayNetwork.globalObserver.globalStatistics  "LifetimeChurn: Time between deletes"  ETV
vector 16  SimpleUnderlayNetwork.globalObserver.globalStatistics  "LifetimeChurn: Session Time"  ETV
vector 17  SimpleUnderlayNetwork.globalObserver.globalStatistics  "LifetimeChurn: Time between creates"  ETV
13	15348122	200	992
13	20290428	250	1030
13	25482207	300	1033
13	30929852	350	1065
13	35964819	400	1026
13	41349237	450	1025
13	47462805	500	1030
13	53175073	550	1022
13	58395229	600	1018
13	63788453	650	1024
13	69041298	700	1037
13	74808755	750	1050
13	80956077	800	1074
13	86920459	850	1078
13	92247337	900	1061
13	97680989	950	1049
13	103220792	1000	1063
13	108511070	1050	1045
13	113547460	1100	1022
13	118581918	1150	1014
14	15348123	200	1357
14	16138785	210	1510
14	17057126	220	1640
14	18228735	230	1781
14	19271071	240	1903
14	20290429	250	2033
14	21353415	260	2194
14	22308552	270	2341
14	23285797	280	2496
14	24417794	290	2643
14	25482208	300	2782
14	26603326	310	2919
14	27699705	320	3073
14	28787889	330	3246
14	29844305	340	3385
14	30929853	350	3537
14	31996691	360	3680
14	32997651	370	3819
14	34080507	380	3957
14	34979195	390	4121
14	35964820	400	4286
14	36985219	410	4328
14	38062879	420	4344
14	39148088	430	4363
14	40332031	440	4350
14	41349238	450	4321
14	42628979	460	4328
14	43840544	470	4358
14	45034605	480	4373
14	46291869	490	4392
14	47462806	500	4366
14	48681446	510	4357
14	49935755	520	4377
14	51114564	530	4379
14	52151040	540	4421
14	53175074	550	4426
14	54295002	560	4413
14	55419786	570	4415
14	56466617	580	4396
14	57386936	590	4407
14	58395230	600	4405
14	59511521	610	4424
14	60580807	620	4415
14	61629171	630	4397
14	62620937	640	4404
14	63788454	650	4381
14	64816631	660	4392
14	65802347	670	4389
14	66796596	680	4421
14	67877252	690	4418
14	69041299	700	4378
14	70227605	710	4385
14	71369914	720	4413
14	72562523	730	4393
14	73749424	740	4417
14	74808756	750	4426
14	76064969	760	4434
14	77395572	770	4419
14	78616940	780	4426
14	79746118	790	4415
14	80956078	800	4440
14	82252915	810	4435
14	83493201	820	4441
14	84726645	830	4449
14	85910741	840	4462
14	86920460	850	4482
14	88078913	860	4488
14	89147943	870	4486
14	90173370	880	4510
14	91116576	890	4497
14	92247338	900	4518
14	93290336	910	4527
14	94443079	920	4535
14	95577207	930	4540
14	96699038	940	4547
14	97680990	950	4556
14	98757694	960	4552
14	99691957	970	4576
14	100841116	980	4571
14	101940573	990	4564
14	103220793	1000	4600
14	104245897	1010	4588
14	105313206	1020	4581
14	106332833	1030	4592
14	107437493	1040	4588
14	108511071	1050	4598
14	109550661	1060	4607
14	110427612	1070	4595
14	111426668	1080	4600
14	112342985	1090	4606
14	113547461	1100	4590
14	114457080	1110	4609
14	115531816	1120	4595
14	116510671	1130	4592
14	117571227	1140	4561
14	118581919	1150	4556
14	119585773	1160	4543
14	120590364	1170	4535
14	121466955	1180	4528
14	122408755	1190	4484
15	15357729	200.116503688	0.541134227
15	15401675	200.605812773	0.489309085
15	15413897	200.789638676	0.183825903
15	15442100	201.09049557	0.300856894
15	15503748	201.823074512	0.732578942
15	15532922	202.132700195	0.309625683
15	15533609	202.14048508	0.007784885
15	15584808	202.76543326	0.62494818
15	15584834	202.765827453	0.000394193
15	15620827	203.21906486	0.453237407
15	15643171	203.521915526	0.302850666
15	15650400	203.648505372	0.126589846
15	15651004	203.659314448	0.010809076
15	15663908	203.804040416	0.144725968
15	15745433	204.712602872	0.908562456
15	15753993	204.802848955	0.090246083
15	15812693	205.689148036	0.886299081
15	15831335	205.92985391	0.240705874
15	15855245	206.235461952	0.305608042
15	15876991	206.446447175	0.210985223
15	15905675	206.79762365	0.351176475
15	15961719	207.605436196	0.807812546
15	15965985	207.696077909	0.090641713
15	16048047	208.903447587	1.207369678
15	16055592	209.013124422	0.109676835
15	16122614	209.794712966	0.781588544
15	16157811	210.269851166	0.4751382
15	16163015	210.36747513	0.097623964
15	16195891	210.756407409	0.388932279
15	16213994	210.981916491	0.225509082
15	16221893	211.076611577	0.094695086
15	16224432	211.121438436	0.044826859
15	16274500	211.609310858	0.487872422
15	16301904	211.755248722	0.145937864
15	16349374	212.292257668	0.537008946
15	16353398	212.354579196	0.062321528
15	16358832	212.428329499	0.073750303
15	16363944	212.523131537	0.094802038
15	16440937	213.333028679	0.809897142
15	16464877	213.555500488	0.222471809
15	16478996	213.6973279	0.141827412
15	16498130	213.92077933	0.22345143
15	16512557	214.085955661	0.165176331
15	16522608	214.210379368	0.124423707
15	16548819	214.504280279	0.293900911
15	16569425	214.726544726	0.222264447
15	16574114	214.772344156	0.04579943
15	16584623	214.919097676	0.14675352
15	16636221	215.501941701	0.582844025
15	16642379	215.596931018	0.094989317
15	16644602	215.635747313	0.038816295
15	16737765	216.887969685	1.252222372
15	16762173	217.228445228	0.340475543
15	16767590	217.290458561	0.062013333
15	16789372	217.510467527	0.220008966
15	16803867	217.643560915	0.133093388
15	16902467	218.611093383	0.967532468
15	17014161	219.570696184	0.959602801
15	17092951	220.305670595	0.734974411
15	17170002	221.046830647	0.741160052
15	17189220	221.215292055	0.168461408
15	17200646	221.361433071	0.146141016
15	17214554	221.543896286	0.182463215
15	17253927	221.962695907	0.418799621
15	17264574	222.05989018	0.097194273
15	17329877	222.589496902	0.529606722
15	17365085	222.877313349	0.287816447
15	17373678	222.980151844	0.102838495
15	17379315	223.067289186	0.087137342
15	17408006	223.424308237	0.357019051
15	17468437	223.862084456	0.437776219
15	17567393	224.471154594	0.609070138
15	17583487	224.650907471	0.179752877
15	17588123	224.702869037	0.051961566
15	17615100	224.956084536	0.253215499
15	17615398	224.959539784	0.003455248
15	17626888	225.085781312	0.126241528
15	17632619	225.119073916	0.033292604
15	17643308	225.205117819	0.086043903
15	17657967	225.31552544	0.110407621
15	17717479	225.748358104	0.432832664
15	17731672	225.843835716	0.095477612
15	17744292	225.917368501	0.073532785
15	17888667	227.243044843	1.325676342
15	17949541	227.695294701	0.452249858
15	17971074	227.807090335	0.111795634
15	17980129	227.882852939	0.075762604
15	18004453	228.103537761	0.220684822
15	18068437	228.606066342	0.502528581
15	18109721	228.880427889	0.274361547
15	18130352	229.061853518	0.181425629
15	18135475	229.120211809	0.058358291
15	18219367	229.899706037	0.779494228
15	18239803	230.07945318	0.179747143
15	18241924	230.101864244	0.022411064
15	18290440	230.498173797	0.396309553
15	18304166	230.629205515	0.131031718
15	18357511	231.263991008	0.634785493
15	18367693	231.390644017	0.126653009
15	18368742	231.399262464	0.008618447
15	18416172	231.760391731	0.361129267
15	18422019	231.828546324	0.068154593
15	18451141	232.213288573	0.384742249
15	18506786	232.775086118	0.561797545
15	18540502	233.157956529	0.382870411
15	18583661	233.621396731	0.463440202
15	18586285	233.646600704	0.025203973
15	18592308	233.699432788	0.052832084
15	18626939	234.003190589	0.303757801
15	18654771	234.272532277	0.269341688
15	18726293	234.929257163	0.656724886
15	18797805	235.652585855	0.723328692
15	18821186	235.849304221	0.196718366
15	18857134	236.099666968	0.250362747
15	18904644	236.488457517	0.388790549
15	18907749	236.51650593	0.028048413
15	18910685	236.533981399	0.017475469
15	18922964	236.64368414	0.109702741
15	18942629	236.824447227	0.180763087
15	18946504	236.854453631	0.030006404
15	18948946	236.878577898	0.024124267
15	18950695	236.896976888	0.01839899
15	18968027	237.073013786	0.176036898
15	18974952	237.145740264	0.072726478
15	19044812	237.919190038	0.773449774
15	19069174	238.2059011	0.286711062
15	19105374	238.539977592	0.334076492
15	19109023	238.56956329	0.029585698
15	19135986	238.827666265	0.258102975
15	19147517	238.894671276	0.067005011
15	19225879	239.577045495	0.682374219
15	19246524	239.718372571	0.141327076
15	19254273	239.796366656	0.077994085
15	19302639	240.498625519	0.702258863
15	19342594	240.924135791	0.425510272
15	19373595	241.269501404	0.345365613
15	19380830	241.346918609	0.077417205
15	19394467	241.457594477	0.110675868
15	19398025	241.489680689	0.032086212
15	19407985	241.583110344	0.093429655
15	19414921	241.652401941	0.069291597
15	19426023	241.778042772	0.125640831
15	19445178	242.103450108	0.325407336
15	19543516	243.175172361	1.071722253
15	19600285	243.826843162	0.651670801
15	19608539	243.954906715	0.128063553
15	19609815	243.967955834	0.013049119
15	19627655	244.112375869	0.144420035
15	19635817	244.169329027	0.056953158
15	19656903	244.355543323	0.186214296
15	19672511	244.454178538	0.098635215
15	19713933	244.807418618	0.35324008
15	19717912	244.851836581	0.044417963
15	19775261	245.482664523	0.630827942
15	19794592	245.803956863	0.32129234
15	19865365	246.386070889	0.582114026
15	19866752	246.395348464	0.009277575
15	19881189	246.550576496	0.155228032
15	19899644	246.740648718	0.190072222
15	19901870	246.768336125	0.027687407
15	20008826	247.744960846	0.976624721
15	20009981	247.755551881	0.010591035
15	20014283	247.812917464	0.057365583
15	20039810	248.077973714	0.26505625
15	20091118	248.548386074	0.47041236
15	20169492	249.07344157	0.525055496
15	20174005	249.098901651	0.025460081
15	20255019	249.657874062	0.558972411
15	20326463	250.359333626	0.701459564
15	20342257	250.493573893	0.134240267
15	20357700	250.63595923	0.142385337
15	20402751	251.114338736	0.478379506
15	20416679	251.243593254	0.129254518
15	20419960	251.274616283	0.031023029
15	20445120	251.541794761	0.267178478
15	20445968	251.554195818	0.012401057
15	20462080	251.746357158	0.19216134
15	20470414	251.838957267	0.092600109
15	20511103	252.321145687	0.48218842
15	20514069	252.346707848	0.025562161
15	20532444	252.503965772	0.157257924
15	20552264	252.738532476	0.234566704
15	20575010	253.067179455	0.328646979
15	20597636	253.344602712	0.277423257
15	20616024	253.488981418	0.144378706
15	20686070	254.241193637	0.752212219
15	20731712	254.643040926	0.401847289
15	20739477	254.719442067	0.076401141
15	20753041	254.878023105	0.158581038
15	20807421	255.402479998	0.524456893
15	20831566	255.538552283	0.136072285
15	20838812	255.591895115	0.053342832
15	20972639	256.763737706	1.171842591
15	20982710	256.861540404	0.097802698
15	21057822	257.422654685	0.561114281
15	21102930	257.778321296	0.355666611
15	21150466	258.231940469	0.453619173
15	21162949	258.311960675	0.080020206
15	21186147	258.545544969	0.233584294
15	21243473	258.99029727	0.444752301
15	21247741	259.029481145	0.039183875
15	21261789	259.155270037	0.125788892
15	21277861	259.320632396	0.165362359
15	21283672	259.401433275	0.080800879
15	21337686	259.827051389	0.425618114
15	21378766	260.31576434	0.488712951
15	21400070	260.469370188	0.153605848
15	21436910	260.83831735	0.368947162
15	21498457	261.461641318	0.623323968
15	21516305	261.647982005	0.186340687
15	21525972	261.746394465	0.09841246
15	21545689	261.933496462	0.187101997
15	21552037	262.011980037	0.078483575
15	21575414	262.298933871	0.286953834
15	21630363	262.721647292	0.422713421
15	21697673	263.354530374	0.632883082
15	21714730	263.488423314	0.13389294
15	21732514	263.633745335	0.145322021
15	21871303	265.110915491	1.477170156
15	21881600	265.192270796	0.081355305
15	21959560	265.985085472	0.792814676
15	21978081	266.217201615	0.232116143
15	22055512	267.037439102	0.820237487
15	22124051	267.784209661	0.746770559
15	22169029	268.394679474	0.610469813
15	22237220	269.066374949	0.671695475
15	22250879	269.232193153	0.165818204
15	22287706	269.750545692	0.518352539
15	22370591	270.633136473	0.882590781
15	22375545	270.687677391	0.054540918
15	22401082	271.060740739	0.373063348
15	22421004	271.35700996	0.296269221
15	22456832	271.666665835	0.309655875
15	22536631	272.461940557	0.795274722
15	22549434	272.665649851	0.203709294
15	22562771	272.917146284	0.251496433
15	22627621	273.72204017	0.804893886
15	22748690	275.065304086	1.343263916
15	22762910	275.298835226	0.23353114
15	22800226	275.762411949	0.463576723
15	22868150	276.494025666	0.731613717
15	22889075	276.689089435	0.195063769
15	22953128	277.178442332	0.489352897
15	23002954	277.614009814	0.435567482
15	23003287	277.616949507	0.002939693
15	23004704	277.628397275	0.011447768
15	23015136	277.696069121	0.067671846
15	23015473	277.698014471	0.00194535
15	23032384	277.841801406	0.143786935
15	23065140	278.1778675	0.336066094
15	23132255	278.672167511	0.494300011
15	23178133	279.082624558	0.410457047
15	23178668	279.088449483	0.005824925
15	23178983	279.093854104	0.005404621
15	23187961	279.194575275	0.100721171
15	23202043	279.314414145	0.11983887
15	23227727	279.55808496	0.243670815
15	23360887	280.630613477	1.072528517
15	23377748	280.861446499	0.230833022
15	23440930	281.501677594	0.640231095
15	23486786	281.924025635	0.422348041
15	23494511	281.971117211	0.047091576
15	23495461	281.975829758	0.004712547
15	23512738	282.108365841	0.132536083
15	23526727	282.223840889	0.115475048
15	23573561	282.559986993	0.336146104
15	23573742	282.562014694	0.002027701
15	23612200	282.922086301	0.360071607
15	23617329	282.971782437	0.049696136
15	23627591	283.101303569	0.129521132
15	23650464	283.31208798	0.210784411
15	23656278	283.365071642	0.052983662
15	23657704	283.381167465	0.016095823
15	23680433	283.648195532	0.267028067
15	23683679	283.678579176	0.030383644
15	23746524	284.166532087	0.487952911
15	23761394	284.260332023	0.093799936
15	23766357	284.290129433	0.02979741
15	23802864	284.5598535	0.269724067
15	23846020	284.89689351	0.33704001
15	23863487	285.098925107	0.202031597
15	23901082	285.49335666	0.394431553
15	23954841	285.996387772	0.503031112
15	23959674	286.053465429	0.057077657
15	24028741	286.567780861	0.514315432
15	24041710	286.673317306	0.105536445
15	24063699	286.895629907	0.222312601
15	24088273	287.161143	0.265513093
15	24144105	287.565556409	0.404413409
15	24185624	287.953452197	0.387895788
15	24226233	288.298905913	0.345453716
15	24248477	288.523953322	0.225047409
15	24381086	289.6380732	1.114119878
15	24408198	289.895783116	0.257709916
15	24460787	290.418721803	0.522938687
15	24462979	290.448272465	0.029550662
15	24507533	290.91313702	0.464864555
15	24520175	291.069442748	0.156305728
15	24528571	291.17556032	0.106117572
15	24542109	291.325146677	0.149586357
15	24546189	291.353090625	0.027943948
15	24752348	293.222512635	1.86942201
15	24805251	293.702767293	0.480254658
15	24817706	293.818364273	0.11559698
15	24947304	294.767934594	0.949570321
15	24960513	294.871148128	0.103213534
15	24977418	295.05088382	0.179735692
15	24979953	295.080860217	0.029976397
15	24999701	295.246504189	0.165643972
15	25050644	295.747858083	0.501353894
15	25066743	295.927634103	0.17977602
15	25092230	296.163664148	0.236030045
15	25144674	296.664387837	0.500723689
15	25154750	296.752939897	0.08855206
15	25183700	297.030968285	0.278028388
15	25205892	297.271444298	0.240476013
15	25211164	297.323636378	0.05219208
15	25266466	297.886435971	0.562799593
15	25370595	298.883613451	0.99717748
15	25397898	299.085079098	0.201465647
15	25401428	299.116689549	0.031610451
15	25412767	299.241003736	0.124314187
15	25434299	299.441464498	0.200460762
15	25447039	299.613802592	0.172338094
15	25449727	299.650858461	0.037055869
15	25469680	299.868174029	0.217315568
15	25484857	300.038413011	0.170238982
15	25519955	300.405553937	0.367140926
15	25627581	301.427495982	1.021942045
15	25681947	301.916497487	0.489001505
15	25683142	301.92438927	0.007891783
15	25755686	302.48858632	0.56419705
15	25760078	302.527288268	0.038701948
15	25780907	302.742595712	0.215307444
15	25863828	303.460380406	0.717784694
15	25868495	303.488981512	0.028601106
15	25892606	303.661101514	0.172120002
15	26021580	304.837898078	1.176796564
15	26055082	305.150201398	0.31230332
15	26109440	305.616950944	0.466749546
15	26151459	305.995019915	0.378068971
15	26169978	306.218690433	0.223670518
15	26199185	306.489580461	0.270890028
15	26215482	306.615226535	0.125646074
15	26259761	306.892856226	0.277629691
15	26269297	306.979380638	0.086524412
15	26284773	307.157168228	0.17778759
15	26307104	307.341508804	0.184340576
15	26408456	308.27915041	0.937641606
15	26411508	308.306720315	0.027569905
15	26430549	308.452508207	0.145787892
15	26501290	309.05240569	0.599897483
15	26526345	309.311105268	0.258699578
15	26589859	309.853333592	0.542228324
15	26733037	311.176341114	1.323007522
15	26777420	311.523065957	0.346724843
15	26811192	311.767109153	0.244043196
15	26818865	311.845743925	0.078634772
15	26879987	312.409377026	0.563633101
15	26925380	312.74590688	0.336529854
15	26966186	313.036904453	0.290997573
15	27083555	314.096924711	1.060020258
15	27086117	314.112955423	0.016030712
15	27097998	314.221883547	0.108928124
15	27100374	314.243644611	0.021761064
15	27137387	314.568147018	0.324502407
15	27199998	315.07549423	0.507347212
15	27222370	315.351895054	0.276400824
15	27230359	315.433859992	0.081964938
15	27255206	315.651849369	0.217989377
15	27333896	316.458984359	0.80713499
15	27369507	316.891613312	0.432628953
15	27389240	317.038283811	0.146670499
15	27400633	317.128102947	0.089819136
15	27450999	317.694037015	0.565934068
15	27479029	317.868212595	0.17417558
15	27503463	318.160576524	0.292363929
15	27539043	318.531729541	0.371153017
15	27553613	318.681806639	0.150077098
15	27561480	318.768558771	0.086752132
15	27644675	319.345537055	0.576978284
15	27715690	320.223440586	0.877903531
15	27757442	320.63251291	0.409072324
15	27779481	320.820276939	0.187764029
15	27792855	320.940591558	0.120314619
15	27799287	320.990921914	0.050330356
15	27806930	321.05116428	0.060242366
15	27808107	321.06032856	0.00916428
15	27857287	321.633238216	0.572909656
15	27879309	321.85722498	0.223986764
15	27886259	321.922909577	0.065684597
15	27935972	322.392693727	0.46978415
15	27944203	322.47177428	0.079080553
15	27949040	322.507583162	0.035808882
15	27954110	322.550361997	0.042778835
15	27975802	322.770666454	0.220304457
15	27976783	322.783977663	0.013311209
15	27976875	322.784829509	0.000851846
15	27988673	322.854657126	0.069827617
15	28046774	323.376755017	0.522097891
15	28106960	323.945910422	0.569155405
15	28202956	324.75412848	0.808218058
15	28209624	324.786454671	0.032326191
15	28264696	325.161054829	0.374600158
15	28271581	325.218990838	0.057936009
15	28305261	325.58350092	0.364510082
15	28473770	326.992446736	1.408945816
15	28529251	327.476146488	0.483699752
15	28539927	327.591048278	0.11490179
15	28551756	327.714412841	0.123364563
15	28558452	327.783809124	0.069396283
15	28654915	328.724616858	0.940807734
15	28658299	328.761903645	0.037286787
15	28661576	328.801463577	0.039559932
15	28738017	329.562889554	0.761425977
15	28744974	329.654759401	0.091869847
15	28787430	329.996444483	0.341685082
15	28836838	330.338326372	0.341881889
15	28868846	330.594798813	0.256472441
15	28880199	330.673691403	0.07889259
15	28890921	330.778071017	0.104379614
15	28997237	331.724625069	0.946554052
15	29045307	332.155833546	0.431208477
15	29072142	332.394410974	0.238577428
15	29184681	333.474677425	1.080266451
15	29301696	334.743230334	1.268552909
15	29417637	335.922315221	1.179084887
15	29443330	336.237750866	0.315435645
15	29484782	336.710808059	0.473057193
15	29488202	336.73944849	0.028640431
15	29528342	337.034621773	0.295173283
15	29557044	337.336781854	0.302160081
15	29562639	337.38703886	0.050257006
15	29588518	337.551403608	0.164364748
15	29638316	338.024799046	0.473395438
15	29641600	338.069839164	0.045040118
15	29649480	338.171314274	0.10147511
15	29662397	338.314432134	0.14311786
15	29681405	338.516954986	0.202522852
15	29687865	338.589708504	0.072753518
15	29826544	339.770815536	1.181107032
15	29829276	339.804817297	0.034001761
15	29835737	339.889774792	0.084957495
15	29851760	340.114051267	0.224276475
15	29884418	340.442259826	0.328208559
15	29894072	340.524718717	0.082458891
15	29896969	340.559466173	0.034747456
15	29910596	340.675524129	0.116057956
15	29984907	341.486550311	0.811026182
15	30037469	342.092420414	0.605870103
15	30039602	342.12474228	0.032321866
15	30046868	342.222441558	0.097699278
15	30048094	342.241298926	0.018857368
15	30052625	342.31110604	0.069807114
15	30060246	342.401924423	0.090818383
15	30067104	342.489847748	0.087923325
15	30071738	342.554785751	0.064938003
15	30080958	342.677043655	0.122257904
15	30114202	342.948518171	0.271474516
15	30126110	343.014818768	0.066300597
15	30170946	343.429083801	0.414265033
15	30179324	343.532843861	0.10376006
15	30211973	343.866054959	0.333211098
15	30240114	344.131535587	0.265480628
15	30241540	344.146598566	0.015062979
15	30274888	344.415076817	0.268478251
15	30290986	344.61813	0.203053183
15	30310382	344.8430523	0.2249223
15	30431965	345.832375968	0.989323668
15	30495035	346.274779369	0.442403401
15	30515942	346.423267931	0.148488562
15	30517617	346.438676337	0.015408406
15	30530003	346.579354935	0.140678598
15	30599843	347.311310267	0.731955332
15	30729943	348.422614475	1.111304208
15	30779290	348.865885882	0.443271407
15	30790140	348.996714567	0.130828685
15	30793624	349.045648853	0.048934286
15	30844577	349.454464846	0.408815993
15	30930799	350.007435108	0.552970262
15	31014317	350.457015233	0.449580125
15	31023302	350.527013289	0.069998056
15	31101810	351.320640291	0.793627002
15	31106204	351.375209467	0.054569176
15	31271027	352.649184942	1.273975475
15	31305358	353.029864169	0.380679227
15	31352616	353.686009744	0.656145575
15	31368681	353.841749324	0.15573958
15	31380766	353.955320123	0.113570799
15	31404227	354.145660797	0.190340674
15	31473725	354.863483421	0.717822624
15	31485317	355.069217437	0.205734016
15	31488697	355.123350135	0.054132698
15	31493664	355.200215694	0.076865559
15	31498881	355.264074638	0.063858944
15	31515571	355.438289669	0.174215031
15	31586911	356.12725917	0.688969501
15	31586969	356.12801334	0.00075417
15	31598567	356.24656767	0.11855433
15	31614122	356.420192899	0.173625229
15	31628290	356.609390962	0.189198063
15	31644044	356.773385225	0.163994263
15	31677017	357.008685792	0.235300567
15	31692486	357.141562045	0.132876253
15	31707240	357.30666445	0.165102405
15	31729929	357.642626456	0.335962006
15	31760816	357.842763672	0.200137216
15	31810891	358.236606327	0.393842655
15	31817956	358.312204614	0.075598287
15	31825355	358.389394657	0.077190043
15	31872011	358.832262428	0.442867771
15	31876643	358.86841499	0.036152562
15	31904817	359.140507081	0.272092091
15	31935486	359.563843544	0.423336463
15	31998183	360.009482267	0.445638723
15	32020383	360.227191206	0.217708939
15	32061250	360.678696487	0.451505281
15	32063374	360.709131182	0.030434695
15	32093288	361.167746781	0.458615599
15	32093471	361.172252634	0.004505853
15	32100260	361.275818747	0.103566113
15	32103408	361.324633067	0.04881432
15	32113028	361.465465428	0.140832361
15	32115163	361.491537175	0.026071747
15	32135291	361.714808873	0.223271698
15	32175426	361.991726154	0.276917281
15	32192528	362.152778074	0.16105192
15	32255582	362.848412737	0.695634663
15	32266988	363.016774482	0.168361745
15	32278080	363.151091431	0.134316949
15	32281711	363.197720301	0.04662887
15	32319175	363.649257871	0.45153757
15	32337246	363.826063328	0.176805457
15	32392845	364.207821269	0.381757941
15	32406477	364.325154891	0.117333622
15	32465342	364.768223061	0.44306817
15	32491850	365.114535626	0.346312565
15	32507270	365.324050784	0.209515158
15	32522405	365.537896121	0.213845337
15	32556053	365.891463425	0.353567304
15	32575121	366.049455192	0.157991767
15	32586896	366.162334036	0.112878844
15	32643400	366.623560465	0.461226429
15	32657555	366.728313409	0.104752944
15	32699283	367.031495463	0.303182054
15	32710218	367.189869644	0.158374181
15	32740536	367.534290443	0.344420799
15	32765921	367.832390369	0.298099926
15	32835419	368.505613566	0.673223197
15	32900414	368.923288546	0.41767498
15	32912408	369.027505759	0.104217213
15	32961127	369.624478855	0.596973096
15	32971492	369.722788002	0.098309147
15	32985545	369.853236394	0.130448392
15	32999788	370.02552429	0.172287896
15	33019614	370.238725743	0.213201453
15	33063430	370.608777583	0.37005184
15	33081251	370.809387352	0.200609769
15	33168050	371.515543287	0.706155935
15	33169787	371.545467838	0.029924551
15	33191218	371.790700707	0.245232869
15	33197742	371.873962774	0.083262067
15	33219828	372.025301396	0.151338622
15	33230595	372.119963417	0.094662021
15	33249969	372.322826172	0.202862755
15	33263941	372.522659739	0.199833567
15	33289210	372.828192921	0.305533182
15	33357300	373.34024207	0.512049149
15	33414593	373.877636913	0.537394843
15	33430671	374.046145524	0.168508611
15	33450217	374.216825129	0.170679605
15	33493910	374.664275805	0.447450676
15	33522750	374.958072749	0.293796944
15	33523402	374.964226658	0.006153909
15	33530039	375.011171831	0.046945173
15	33578481	375.446891214	0.435719383
15	33611764	375.848776712	0.401885498
15	33621983	375.959777102	0.11100039
15	33668454	376.266089164	0.306312062
15	33676500	376.325773189	0.059684025
15	33688038	376.420974048	0.095200859
15	33732069	376.833001577	0.412027529
15	33738014	376.923932584	0.090931007
15	33742219	376.979843078	0.055910494
15	33753652	377.134177119	0.154334041
15	33776621	377.495789652	0.361612533
15	33803758	377.777098214	0.281308562
15	33855954	378.15020971	0.373111496
15	33932083	378.723697287	0.573487577
15	33942091	378.856248419	0.132551132
15	33953007	379.030257983	0.174009564
15	33955966	379.075463607	0.045205624
15	33957960	379.111036506	0.035572899
15	33958014	379.112391598	0.001355092
15	33962168	379.188945219	0.076553621
15	34135929	380.581520844	1.392575625
15	34136989	380.595161021	0.013640177
15	34147987	380.738395102	0.143234081
15	34149530	380.752558115	0.014163013
15	34156306	380.822928878	0.070370763
15	34234735	381.504927308	0.68199843
15	34255815	381.673081857	0.168154549
15	34278850	381.944009697	0.27092784
15	34281209	381.992782974	0.048773277
15	34322151	382.434658303	0.441875329
15	34326718	382.483189434	0.048531131
15	34421996	383.32128464	0.838095206
15	34448524	383.712759886	0.391475246
15	34460377	383.858278459	0.145518573
15	34583184	385.021735974	1.163457515
15	34616384	385.456482477	0.434746503
15	34652864	385.830341217	0.37385874
15	34667439	386.039278209	0.208936992
15	34733173	386.901567012	0.862288803
15	34736494	386.939380061	0.037813049
15	34742737	387.028711988	0.089331927
15	34758903	387.24833037	0.219618382
15	34764610	387.299704464	0.051374094
15	34824470	388.161202185	0.861497721
15	34872906	388.722905056	0.561702871
15	34876436	388.761048354	0.038143298
15	34879818	388.800814453	0.039766099
15	34883484	388.841777967	0.040963514
15	34950741	389.601428551	0.759650584
15	34971935	389.90020012	0.298771569
15	34972667	389.910253444	0.010053324
15	34980574	390.016653234	0.10639979
15	35036843	390.577578776	0.560925542
15	35081767	391.230575717	0.652996941
15	35092837	391.3381511	0.107575383
15	35095537	391.384864195	0.046713095
15	35097391	391.421984216	0.037120021
15	35099335	391.455968186	0.03398397
15	35127125	391.780181494	0.324213308
15	35167895	392.162381461	0.382199967
15	35178617	392.281984081	0.11960262
15	35182107	392.317001894	0.035017813
15	35188574	392.383494998	0.066493104
15	35192273	392.420921553	0.037426555
15	35216092	392.641380267	0.220458714
15	35216509	392.649881823	0.008501556
15	35225400	392.764976866	0.115095043
15	35231290	392.834961653	0.069984787
15	35235043	392.872469751	0.037508098
15	35237736	392.903660751	0.031191
15	35244632	392.988853771	0.08519302
15	35258734	393.159849856	0.170996085
15	35298978	393.498392514	0.338542658
15	35391412	394.520732558	1.022340044
15	35406505	394.665495309	0.144762751
15	35434326	394.954586004	0.289090695
15	35457404	395.164631512	0.210045508
15	35471313	395.341840592	0.17720908
15	35478545	395.440774011	0.098933419
15	35481051	395.475920045	0.035146034
15	35498587	395.724606216	0.248686171
15	35505577	395.815367663	0.090761447
15	35511121	395.889848845	0.074481182
15	35549328	396.254259792	0.364410947
15	35561342	396.344449376	0.090189584
15	35642966	397.035396892	0.690947516
15	35647331	397.103189292	0.0677924
15	35704052	397.807610272	0.70442098
15	35839572	398.921808778	1.114198506
15	35875818	399.27045607	0.348647292
15	35894883	399.447015365	0.176559295
15	35900833	399.496395401	0.049380036
15	35977684	400.105344802	0.608949401
15	35981792	400.138878792	0.03353399
15	36001160	400.309263115	0.170384323
15	36017433	400.53499713	0.225734015
15	36021704	400.601087208	0.066090078
15	36036088	400.712286199	0.111198991
15	36088165	401.272934144	0.560647945
15	36090788	401.305240974	0.03230683
15	36105693	401.431546049	0.126305075
15	36132944	401.602027525	0.170481476
15	36147070	401.744249679	0.142222154
15	36162437	401.860240256	0.115990577
15	36164392	401.8697659	0.009525644
15	36173390	401.938842054	0.069076154
15	36184429	402.02635264	0.087510586
15	36190925	402.073129281	0.046776641
15	36234330	402.508959406	0.435830125
15	36243929	402.644253138	0.135293732
15	36347024	403.776764115	1.132510977
15	36382393	404.080937914	0.304173799
15	36389737	404.154034977	0.073097063
15	36433185	404.658426492	0.504391515
15	36435042	404.688912978	0.030486486
15	36452591	404.918953926	0.230040948
15	36478125	405.113385762	0.194431836
15	36484344	405.149338215	0.035952453
15	36503134	405.32278159	0.173443375
15	36512143	405.427063359	0.104281769
15	36515538	405.45430099	0.027237631
15	36538009	405.730116852	0.275815862
15	36544912	405.819666846	0.089549994
15	36549317	405.876005022	0.056338176